LAMMPS data file via write_data, version 23 Jun 2022, timestep = 0

2000 atoms
1 atom types

-1.005355 153.55 xlo xhi
-1.004641 146.41 ylo yhi
-1 124.14 zlo zhi

Masses

1 12.0107

Atoms # atomic

1 1 0 0 17 0 0 0
2 1 0 1.785 18.785 0 0 0
3 1 1.785 1.785 17 0 0 0
4 1 1.785 0 18.785 0 0 0
5 1 2.6774999999999998 0.8925 19.6775 0 0 0
6 1 0.8925 0.8925 17.8925 0 0 0
7 1 0.8925 2.6774999999999998 19.6775 0 0 0
8 1 2.6774999999999998 2.6774999999999998 17.8925 0 0 0
9 1 0 0 20.57 0 0 0
10 1 0 1.785 22.355 0 0 0
11 1 1.785 1.785 20.57 0 0 0
12 1 1.785 0 22.355 0 0 0
13 1 2.6774999999999998 0.8925 23.2475 0 0 0
14 1 0.8925 0.8925 21.4625 0 0 0
15 1 0.8925 2.6774999999999998 23.2475 0 0 0
16 1 2.6774999999999998 2.6774999999999998 21.4625 0 0 0
17 1 0 3.57 17 0 0 0
18 1 0 5.3549999999999995 18.785 0 0 0
19 1 1.785 5.3549999999999995 17 0 0 0
20 1 1.785 3.57 18.785 0 0 0
21 1 2.6774999999999998 4.4624999999999995 19.6775 0 0 0
22 1 0.8925 4.4624999999999995 17.8925 0 0 0
23 1 0.8925 6.2475 19.6775 0 0 0
24 1 2.6774999999999998 6.2475 17.8925 0 0 0
25 1 0 3.57 20.57 0 0 0
26 1 0 5.3549999999999995 22.355 0 0 0
27 1 1.785 5.3549999999999995 20.57 0 0 0
28 1 1.785 3.57 22.355 0 0 0
29 1 2.6774999999999998 4.4624999999999995 23.2475 0 0 0
30 1 0.8925 4.4624999999999995 21.4625 0 0 0
31 1 0.8925 6.2475 23.2475 0 0 0
32 1 2.6774999999999998 6.2475 21.4625 0 0 0
33 1 0 7.14 17 0 0 0
34 1 0 8.924999999999999 18.785 0 0 0
35 1 1.785 8.924999999999999 17 0 0 0
36 1 1.785 7.14 18.785 0 0 0
37 1 2.6774999999999998 8.032499999999999 19.6775 0 0 0
38 1 0.8925 8.032499999999999 17.8925 0 0 0
39 1 0.8925 9.817499999999999 19.6775 0 0 0
40 1 2.6774999999999998 9.817499999999999 17.8925 0 0 0
41 1 0 7.14 20.57 0 0 0
42 1 0 8.924999999999999 22.355 0 0 0
43 1 1.785 8.924999999999999 20.57 0 0 0
44 1 1.785 7.14 22.355 0 0 0
45 1 2.6774999999999998 8.032499999999999 23.2475 0 0 0
46 1 0.8925 8.032499999999999 21.4625 0 0 0
47 1 0.8925 9.817499999999999 23.2475 0 0 0
48 1 2.6774999999999998 9.817499999999999 21.4625 0 0 0
49 1 0 10.709999999999999 17 0 0 0
50 1 0 12.495 18.785 0 0 0
51 1 1.785 12.495 17 0 0 0
52 1 1.785 10.709999999999999 18.785 0 0 0
53 1 2.6774999999999998 11.6025 19.6775 0 0 0
54 1 0.8925 11.6025 17.8925 0 0 0
55 1 0.8925 13.3875 19.6775 0 0 0
56 1 2.6774999999999998 13.3875 17.8925 0 0 0
57 1 0 10.709999999999999 20.57 0 0 0
58 1 0 12.495 22.355 0 0 0
59 1 1.785 12.495 20.57 0 0 0
60 1 1.785 10.709999999999999 22.355 0 0 0
61 1 2.6774999999999998 11.6025 23.2475 0 0 0
62 1 0.8925 11.6025 21.4625 0 0 0
63 1 0.8925 13.3875 23.2475 0 0 0
64 1 2.6774999999999998 13.3875 21.4625 0 0 0
65 1 0 14.28 17 0 0 0
66 1 0 16.064999999999998 18.785 0 0 0
67 1 1.785 16.064999999999998 17 0 0 0
68 1 1.785 14.28 18.785 0 0 0
69 1 2.6774999999999998 15.1725 19.6775 0 0 0
70 1 0.8925 15.1725 17.8925 0 0 0
71 1 0.8925 16.9575 19.6775 0 0 0
72 1 2.6774999999999998 16.9575 17.8925 0 0 0
73 1 0 14.28 20.57 0 0 0
74 1 0 16.064999999999998 22.355 0 0 0
75 1 1.785 16.064999999999998 20.57 0 0 0
76 1 1.785 14.28 22.355 0 0 0
77 1 2.6774999999999998 15.1725 23.2475 0 0 0
78 1 0.8925 15.1725 21.4625 0 0 0
79 1 0.8925 16.9575 23.2475 0 0 0
80 1 2.6774999999999998 16.9575 21.4625 0 0 0
81 1 0 17.849999999999998 17 0 0 0
82 1 0 19.634999999999998 18.785 0 0 0
83 1 1.785 19.634999999999998 17 0 0 0
84 1 1.785 17.849999999999998 18.785 0 0 0
85 1 2.6774999999999998 18.742499999999996 19.6775 0 0 0
86 1 0.8925 18.742499999999996 17.8925 0 0 0
87 1 0.8925 20.527499999999996 19.6775 0 0 0
88 1 2.6774999999999998 20.527499999999996 17.8925 0 0 0
89 1 0 17.849999999999998 20.57 0 0 0
90 1 0 19.634999999999998 22.355 0 0 0
91 1 1.785 19.634999999999998 20.57 0 0 0
92 1 1.785 17.849999999999998 22.355 0 0 0
93 1 2.6774999999999998 18.742499999999996 23.2475 0 0 0
94 1 0.8925 18.742499999999996 21.4625 0 0 0
95 1 0.8925 20.527499999999996 23.2475 0 0 0
96 1 2.6774999999999998 20.527499999999996 21.4625 0 0 0
97 1 0 21.419999999999998 17 0 0 0
98 1 0 23.205 18.785 0 0 0
99 1 1.785 23.205 17 0 0 0
100 1 1.785 21.419999999999998 18.785 0 0 0
101 1 2.6774999999999998 22.312499999999996 19.6775 0 0 0
102 1 0.8925 22.312499999999996 17.8925 0 0 0
103 1 0.8925 24.097499999999997 19.6775 0 0 0
104 1 2.6774999999999998 24.097499999999997 17.8925 0 0 0
105 1 0 21.419999999999998 20.57 0 0 0
106 1 0 23.205 22.355 0 0 0
107 1 1.785 23.205 20.57 0 0 0
108 1 1.785 21.419999999999998 22.355 0 0 0
109 1 2.6774999999999998 22.312499999999996 23.2475 0 0 0
110 1 0.8925 22.312499999999996 21.4625 0 0 0
111 1 0.8925 24.097499999999997 23.2475 0 0 0
112 1 2.6774999999999998 24.097499999999997 21.4625 0 0 0
113 1 0 24.99 17 0 0 0
114 1 0 26.775 18.785 0 0 0
115 1 1.785 26.775 17 0 0 0
116 1 1.785 24.99 18.785 0 0 0
117 1 2.6774999999999998 25.882499999999997 19.6775 0 0 0
118 1 0.8925 25.882499999999997 17.8925 0 0 0
119 1 0.8925 27.667499999999997 19.6775 0 0 0
120 1 2.6774999999999998 27.667499999999997 17.8925 0 0 0
121 1 0 24.99 20.57 0 0 0
122 1 0 26.775 22.355 0 0 0
123 1 1.785 26.775 20.57 0 0 0
124 1 1.785 24.99 22.355 0 0 0
125 1 2.6774999999999998 25.882499999999997 23.2475 0 0 0
126 1 0.8925 25.882499999999997 21.4625 0 0 0
127 1 0.8925 27.667499999999997 23.2475 0 0 0
128 1 2.6774999999999998 27.667499999999997 21.4625 0 0 0
129 1 0 28.56 17 0 0 0
130 1 0 30.345 18.785 0 0 0
131 1 1.785 30.345 17 0 0 0
132 1 1.785 28.56 18.785 0 0 0
133 1 2.6774999999999998 29.452499999999997 19.6775 0 0 0
134 1 0.8925 29.452499999999997 17.8925 0 0 0
135 1 0.8925 31.237499999999997 19.6775 0 0 0
136 1 2.6774999999999998 31.237499999999997 17.8925 0 0 0
137 1 0 28.56 20.57 0 0 0
138 1 0 30.345 22.355 0 0 0
139 1 1.785 30.345 20.57 0 0 0
140 1 1.785 28.56 22.355 0 0 0
141 1 2.6774999999999998 29.452499999999997 23.2475 0 0 0
142 1 0.8925 29.452499999999997 21.4625 0 0 0
143 1 0.8925 31.237499999999997 23.2475 0 0 0
144 1 2.6774999999999998 31.237499999999997 21.4625 0 0 0
145 1 0 32.129999999999995 17 0 0 0
146 1 0 33.91499999999999 18.785 0 0 0
147 1 1.785 33.91499999999999 17 0 0 0
148 1 1.785 32.129999999999995 18.785 0 0 0
149 1 2.6774999999999998 33.022499999999994 19.6775 0 0 0
150 1 0.8925 33.022499999999994 17.8925 0 0 0
151 1 0.8925 34.8075 19.6775 0 0 0
152 1 2.6774999999999998 34.8075 17.8925 0 0 0
153 1 0 32.129999999999995 20.57 0 0 0
154 1 0 33.91499999999999 22.355 0 0 0
155 1 1.785 33.91499999999999 20.57 0 0 0
156 1 1.785 32.129999999999995 22.355 0 0 0
157 1 2.6774999999999998 33.022499999999994 23.2475 0 0 0
158 1 0.8925 33.022499999999994 21.4625 0 0 0
159 1 0.8925 34.8075 23.2475 0 0 0
160 1 2.6774999999999998 34.8075 21.4625 0 0 0
161 1 0 35.699999999999996 17 0 0 0
162 1 0 37.48499999999999 18.785 0 0 0
163 1 1.785 37.48499999999999 17 0 0 0
164 1 1.785 35.699999999999996 18.785 0 0 0
165 1 2.6774999999999998 36.592499999999994 19.6775 0 0 0
166 1 0.8925 36.592499999999994 17.8925 0 0 0
167 1 0.8925 38.3775 19.6775 0 0 0
168 1 2.6774999999999998 38.3775 17.8925 0 0 0
169 1 0 35.699999999999996 20.57 0 0 0
170 1 0 37.48499999999999 22.355 0 0 0
171 1 1.785 37.48499999999999 20.57 0 0 0
172 1 1.785 35.699999999999996 22.355 0 0 0
173 1 2.6774999999999998 36.592499999999994 23.2475 0 0 0
174 1 0.8925 36.592499999999994 21.4625 0 0 0
175 1 0.8925 38.3775 23.2475 0 0 0
176 1 2.6774999999999998 38.3775 21.4625 0 0 0
177 1 0 39.269999999999996 17 0 0 0
178 1 0 41.05499999999999 18.785 0 0 0
179 1 1.785 41.05499999999999 17 0 0 0
180 1 1.785 39.269999999999996 18.785 0 0 0
181 1 2.6774999999999998 40.162499999999994 19.6775 0 0 0
182 1 0.8925 40.162499999999994 17.8925 0 0 0
183 1 0.8925 41.9475 19.6775 0 0 0
184 1 2.6774999999999998 41.9475 17.8925 0 0 0
185 1 0 39.269999999999996 20.57 0 0 0
186 1 0 41.05499999999999 22.355 0 0 0
187 1 1.785 41.05499999999999 20.57 0 0 0
188 1 1.785 39.269999999999996 22.355 0 0 0
189 1 2.6774999999999998 40.162499999999994 23.2475 0 0 0
190 1 0.8925 40.162499999999994 21.4625 0 0 0
191 1 0.8925 41.9475 23.2475 0 0 0
192 1 2.6774999999999998 41.9475 21.4625 0 0 0
193 1 0 42.839999999999996 17 0 0 0
194 1 0 44.62499999999999 18.785 0 0 0
195 1 1.785 44.62499999999999 17 0 0 0
196 1 1.785 42.839999999999996 18.785 0 0 0
197 1 2.6774999999999998 43.732499999999995 19.6775 0 0 0
198 1 0.8925 43.732499999999995 17.8925 0 0 0
199 1 0.8925 45.5175 19.6775 0 0 0
200 1 2.6774999999999998 45.5175 17.8925 0 0 0
201 1 0 42.839999999999996 20.57 0 0 0
202 1 0 44.62499999999999 22.355 0 0 0
203 1 1.785 44.62499999999999 20.57 0 0 0
204 1 1.785 42.839999999999996 22.355 0 0 0
205 1 2.6774999999999998 43.732499999999995 23.2475 0 0 0
206 1 0.8925 43.732499999999995 21.4625 0 0 0
207 1 0.8925 45.5175 23.2475 0 0 0
208 1 2.6774999999999998 45.5175 21.4625 0 0 0
209 1 3.57 0 17 0 0 0
210 1 3.57 1.785 18.785 0 0 0
211 1 5.3549999999999995 1.785 17 0 0 0
212 1 5.3549999999999995 0 18.785 0 0 0
213 1 6.2475 0.8925 19.6775 0 0 0
214 1 4.4624999999999995 0.8925 17.8925 0 0 0
215 1 4.4624999999999995 2.6774999999999998 19.6775 0 0 0
216 1 6.2475 2.6774999999999998 17.8925 0 0 0
217 1 3.57 0 20.57 0 0 0
218 1 3.57 1.785 22.355 0 0 0
219 1 5.3549999999999995 1.785 20.57 0 0 0
220 1 5.3549999999999995 0 22.355 0 0 0
221 1 6.2475 0.8925 23.2475 0 0 0
222 1 4.4624999999999995 0.8925 21.4625 0 0 0
223 1 4.4624999999999995 2.6774999999999998 23.2475 0 0 0
224 1 6.2475 2.6774999999999998 21.4625 0 0 0
225 1 3.57 3.57 17 0 0 0
226 1 3.57 5.3549999999999995 18.785 0 0 0
227 1 5.3549999999999995 5.3549999999999995 17 0 0 0
228 1 5.3549999999999995 3.57 18.785 0 0 0
229 1 6.2475 4.4624999999999995 19.6775 0 0 0
230 1 4.4624999999999995 4.4624999999999995 17.8925 0 0 0
231 1 4.4624999999999995 6.2475 19.6775 0 0 0
232 1 6.2475 6.2475 17.8925 0 0 0
233 1 3.57 3.57 20.57 0 0 0
234 1 3.57 5.3549999999999995 22.355 0 0 0
235 1 5.3549999999999995 5.3549999999999995 20.57 0 0 0
236 1 5.3549999999999995 3.57 22.355 0 0 0
237 1 6.2475 4.4624999999999995 23.2475 0 0 0
238 1 4.4624999999999995 4.4624999999999995 21.4625 0 0 0
239 1 4.4624999999999995 6.2475 23.2475 0 0 0
240 1 6.2475 6.2475 21.4625 0 0 0
241 1 3.57 7.14 17 0 0 0
242 1 3.57 8.924999999999999 18.785 0 0 0
243 1 5.3549999999999995 8.924999999999999 17 0 0 0
244 1 5.3549999999999995 7.14 18.785 0 0 0
245 1 6.2475 8.032499999999999 19.6775 0 0 0
246 1 4.4624999999999995 8.032499999999999 17.8925 0 0 0
247 1 4.4624999999999995 9.817499999999999 19.6775 0 0 0
248 1 6.2475 9.817499999999999 17.8925 0 0 0
249 1 3.57 7.14 20.57 0 0 0
250 1 3.57 8.924999999999999 22.355 0 0 0
251 1 5.3549999999999995 8.924999999999999 20.57 0 0 0
252 1 5.3549999999999995 7.14 22.355 0 0 0
253 1 6.2475 8.032499999999999 23.2475 0 0 0
254 1 4.4624999999999995 8.032499999999999 21.4625 0 0 0
255 1 4.4624999999999995 9.817499999999999 23.2475 0 0 0
256 1 6.2475 9.817499999999999 21.4625 0 0 0
257 1 3.57 10.709999999999999 17 0 0 0
258 1 3.57 12.495 18.785 0 0 0
259 1 5.3549999999999995 12.495 17 0 0 0
260 1 5.3549999999999995 10.709999999999999 18.785 0 0 0
261 1 6.2475 11.6025 19.6775 0 0 0
262 1 4.4624999999999995 11.6025 17.8925 0 0 0
263 1 4.4624999999999995 13.3875 19.6775 0 0 0
264 1 6.2475 13.3875 17.8925 0 0 0
265 1 3.57 10.709999999999999 20.57 0 0 0
266 1 3.57 12.495 22.355 0 0 0
267 1 5.3549999999999995 12.495 20.57 0 0 0
268 1 5.3549999999999995 10.709999999999999 22.355 0 0 0
269 1 6.2475 11.6025 23.2475 0 0 0
270 1 4.4624999999999995 11.6025 21.4625 0 0 0
271 1 4.4624999999999995 13.3875 23.2475 0 0 0
272 1 6.2475 13.3875 21.4625 0 0 0
273 1 3.57 14.28 17 0 0 0
274 1 3.57 16.064999999999998 18.785 0 0 0
275 1 5.3549999999999995 16.064999999999998 17 0 0 0
276 1 5.3549999999999995 14.28 18.785 0 0 0
277 1 6.2475 15.1725 19.6775 0 0 0
278 1 4.4624999999999995 15.1725 17.8925 0 0 0
279 1 4.4624999999999995 16.9575 19.6775 0 0 0
280 1 6.2475 16.9575 17.8925 0 0 0
281 1 3.57 14.28 20.57 0 0 0
282 1 3.57 16.064999999999998 22.355 0 0 0
283 1 5.3549999999999995 16.064999999999998 20.57 0 0 0
284 1 5.3549999999999995 14.28 22.355 0 0 0
285 1 6.2475 15.1725 23.2475 0 0 0
286 1 4.4624999999999995 15.1725 21.4625 0 0 0
287 1 4.4624999999999995 16.9575 23.2475 0 0 0
288 1 6.2475 16.9575 21.4625 0 0 0
289 1 3.57 17.849999999999998 17 0 0 0
290 1 3.57 19.634999999999998 18.785 0 0 0
291 1 5.3549999999999995 19.634999999999998 17 0 0 0
292 1 5.3549999999999995 17.849999999999998 18.785 0 0 0
293 1 6.2475 18.742499999999996 19.6775 0 0 0
294 1 4.4624999999999995 18.742499999999996 17.8925 0 0 0
295 1 4.4624999999999995 20.527499999999996 19.6775 0 0 0
296 1 6.2475 20.527499999999996 17.8925 0 0 0
297 1 3.57 17.849999999999998 20.57 0 0 0
298 1 3.57 19.634999999999998 22.355 0 0 0
299 1 5.3549999999999995 19.634999999999998 20.57 0 0 0
300 1 5.3549999999999995 17.849999999999998 22.355 0 0 0
301 1 6.2475 18.742499999999996 23.2475 0 0 0
302 1 4.4624999999999995 18.742499999999996 21.4625 0 0 0
303 1 4.4624999999999995 20.527499999999996 23.2475 0 0 0
304 1 6.2475 20.527499999999996 21.4625 0 0 0
305 1 3.57 21.419999999999998 17 0 0 0
306 1 3.57 23.205 18.785 0 0 0
307 1 5.3549999999999995 23.205 17 0 0 0
308 1 5.3549999999999995 21.419999999999998 18.785 0 0 0
309 1 6.2475 22.312499999999996 19.6775 0 0 0
310 1 4.4624999999999995 22.312499999999996 17.8925 0 0 0
311 1 4.4624999999999995 24.097499999999997 19.6775 0 0 0
312 1 6.2475 24.097499999999997 17.8925 0 0 0
313 1 3.57 21.419999999999998 20.57 0 0 0
314 1 3.57 23.205 22.355 0 0 0
315 1 5.3549999999999995 23.205 20.57 0 0 0
316 1 5.3549999999999995 21.419999999999998 22.355 0 0 0
317 1 6.2475 22.312499999999996 23.2475 0 0 0
318 1 4.4624999999999995 22.312499999999996 21.4625 0 0 0
319 1 4.4624999999999995 24.097499999999997 23.2475 0 0 0
320 1 6.2475 24.097499999999997 21.4625 0 0 0
321 1 3.57 24.99 17 0 0 0
322 1 3.57 26.775 18.785 0 0 0
323 1 5.3549999999999995 26.775 17 0 0 0
324 1 5.3549999999999995 24.99 18.785 0 0 0
325 1 6.2475 25.882499999999997 19.6775 0 0 0
326 1 4.4624999999999995 25.882499999999997 17.8925 0 0 0
327 1 4.4624999999999995 27.667499999999997 19.6775 0 0 0
328 1 6.2475 27.667499999999997 17.8925 0 0 0
329 1 3.57 24.99 20.57 0 0 0
330 1 3.57 26.775 22.355 0 0 0
331 1 5.3549999999999995 26.775 20.57 0 0 0
332 1 5.3549999999999995 24.99 22.355 0 0 0
333 1 6.2475 25.882499999999997 23.2475 0 0 0
334 1 4.4624999999999995 25.882499999999997 21.4625 0 0 0
335 1 4.4624999999999995 27.667499999999997 23.2475 0 0 0
336 1 6.2475 27.667499999999997 21.4625 0 0 0
337 1 3.57 28.56 17 0 0 0
338 1 3.57 30.345 18.785 0 0 0
339 1 5.3549999999999995 30.345 17 0 0 0
340 1 5.3549999999999995 28.56 18.785 0 0 0
341 1 6.2475 29.452499999999997 19.6775 0 0 0
342 1 4.4624999999999995 29.452499999999997 17.8925 0 0 0
343 1 4.4624999999999995 31.237499999999997 19.6775 0 0 0
344 1 6.2475 31.237499999999997 17.8925 0 0 0
345 1 3.57 28.56 20.57 0 0 0
346 1 3.57 30.345 22.355 0 0 0
347 1 5.3549999999999995 30.345 20.57 0 0 0
348 1 5.3549999999999995 28.56 22.355 0 0 0
349 1 6.2475 29.452499999999997 23.2475 0 0 0
350 1 4.4624999999999995 29.452499999999997 21.4625 0 0 0
351 1 4.4624999999999995 31.237499999999997 23.2475 0 0 0
352 1 6.2475 31.237499999999997 21.4625 0 0 0
353 1 3.57 32.129999999999995 17 0 0 0
354 1 3.57 33.91499999999999 18.785 0 0 0
355 1 5.3549999999999995 33.91499999999999 17 0 0 0
356 1 5.3549999999999995 32.129999999999995 18.785 0 0 0
357 1 6.2475 33.022499999999994 19.6775 0 0 0
358 1 4.4624999999999995 33.022499999999994 17.8925 0 0 0
359 1 4.4624999999999995 34.8075 19.6775 0 0 0
360 1 6.2475 34.8075 17.8925 0 0 0
361 1 3.57 32.129999999999995 20.57 0 0 0
362 1 3.57 33.91499999999999 22.355 0 0 0
363 1 5.3549999999999995 33.91499999999999 20.57 0 0 0
364 1 5.3549999999999995 32.129999999999995 22.355 0 0 0
365 1 6.2475 33.022499999999994 23.2475 0 0 0
366 1 4.4624999999999995 33.022499999999994 21.4625 0 0 0
367 1 4.4624999999999995 34.8075 23.2475 0 0 0
368 1 6.2475 34.8075 21.4625 0 0 0
369 1 3.57 35.699999999999996 17 0 0 0
370 1 3.57 37.48499999999999 18.785 0 0 0
371 1 5.3549999999999995 37.48499999999999 17 0 0 0
372 1 5.3549999999999995 35.699999999999996 18.785 0 0 0
373 1 6.2475 36.592499999999994 19.6775 0 0 0
374 1 4.4624999999999995 36.592499999999994 17.8925 0 0 0
375 1 4.4624999999999995 38.3775 19.6775 0 0 0
376 1 6.2475 38.3775 17.8925 0 0 0
377 1 3.57 35.699999999999996 20.57 0 0 0
378 1 3.57 37.48499999999999 22.355 0 0 0
379 1 5.3549999999999995 37.48499999999999 20.57 0 0 0
380 1 5.3549999999999995 35.699999999999996 22.355 0 0 0
381 1 6.2475 36.592499999999994 23.2475 0 0 0
382 1 4.4624999999999995 36.592499999999994 21.4625 0 0 0
383 1 4.4624999999999995 38.3775 23.2475 0 0 0
384 1 6.2475 38.3775 21.4625 0 0 0
385 1 3.57 39.269999999999996 17 0 0 0
386 1 3.57 41.05499999999999 18.785 0 0 0
387 1 5.3549999999999995 41.05499999999999 17 0 0 0
388 1 5.3549999999999995 39.269999999999996 18.785 0 0 0
389 1 6.2475 40.162499999999994 19.6775 0 0 0
390 1 4.4624999999999995 40.162499999999994 17.8925 0 0 0
391 1 4.4624999999999995 41.9475 19.6775 0 0 0
392 1 6.2475 41.9475 17.8925 0 0 0
393 1 3.57 39.269999999999996 20.57 0 0 0
394 1 3.57 41.05499999999999 22.355 0 0 0
395 1 5.3549999999999995 41.05499999999999 20.57 0 0 0
396 1 5.3549999999999995 39.269999999999996 22.355 0 0 0
397 1 6.2475 40.162499999999994 23.2475 0 0 0
398 1 4.4624999999999995 40.162499999999994 21.4625 0 0 0
399 1 4.4624999999999995 41.9475 23.2475 0 0 0
400 1 6.2475 41.9475 21.4625 0 0 0
401 1 3.57 42.839999999999996 17 0 0 0
402 1 3.57 44.62499999999999 18.785 0 0 0
403 1 5.3549999999999995 44.62499999999999 17 0 0 0
404 1 5.3549999999999995 42.839999999999996 18.785 0 0 0
405 1 6.2475 43.732499999999995 19.6775 0 0 0
406 1 4.4624999999999995 43.732499999999995 17.8925 0 0 0
407 1 4.4624999999999995 45.5175 19.6775 0 0 0
408 1 6.2475 45.5175 17.8925 0 0 0
409 1 3.57 42.839999999999996 20.57 0 0 0
410 1 3.57 44.62499999999999 22.355 0 0 0
411 1 5.3549999999999995 44.62499999999999 20.57 0 0 0
412 1 5.3549999999999995 42.839999999999996 22.355 0 0 0
413 1 6.2475 43.732499999999995 23.2475 0 0 0
414 1 4.4624999999999995 43.732499999999995 21.4625 0 0 0
415 1 4.4624999999999995 45.5175 23.2475 0 0 0
416 1 6.2475 45.5175 21.4625 0 0 0
417 1 7.14 0 17 0 0 0
418 1 7.14 1.785 18.785 0 0 0
419 1 8.924999999999999 1.785 17 0 0 0
420 1 8.924999999999999 0 18.785 0 0 0
421 1 9.817499999999999 0.8925 19.6775 0 0 0
422 1 8.032499999999999 0.8925 17.8925 0 0 0
423 1 8.032499999999999 2.6774999999999998 19.6775 0 0 0
424 1 9.817499999999999 2.6774999999999998 17.8925 0 0 0
425 1 7.14 0 20.57 0 0 0
426 1 7.14 1.785 22.355 0 0 0
427 1 8.924999999999999 1.785 20.57 0 0 0
428 1 8.924999999999999 0 22.355 0 0 0
429 1 9.817499999999999 0.8925 23.2475 0 0 0
430 1 8.032499999999999 0.8925 21.4625 0 0 0
431 1 8.032499999999999 2.6774999999999998 23.2475 0 0 0
432 1 9.817499999999999 2.6774999999999998 21.4625 0 0 0
433 1 7.14 3.57 17 0 0 0
434 1 7.14 5.3549999999999995 18.785 0 0 0
435 1 8.924999999999999 5.3549999999999995 17 0 0 0
436 1 8.924999999999999 3.57 18.785 0 0 0
437 1 9.817499999999999 4.4624999999999995 19.6775 0 0 0
438 1 8.032499999999999 4.4624999999999995 17.8925 0 0 0
439 1 8.032499999999999 6.2475 19.6775 0 0 0
440 1 9.817499999999999 6.2475 17.8925 0 0 0
441 1 7.14 3.57 20.57 0 0 0
442 1 7.14 5.3549999999999995 22.355 0 0 0
443 1 8.924999999999999 5.3549999999999995 20.57 0 0 0
444 1 8.924999999999999 3.57 22.355 0 0 0
445 1 9.817499999999999 4.4624999999999995 23.2475 0 0 0
446 1 8.032499999999999 4.4624999999999995 21.4625 0 0 0
447 1 8.032499999999999 6.2475 23.2475 0 0 0
448 1 9.817499999999999 6.2475 21.4625 0 0 0
449 1 7.14 7.14 17 0 0 0
450 1 7.14 8.924999999999999 18.785 0 0 0
451 1 8.924999999999999 8.924999999999999 17 0 0 0
452 1 8.924999999999999 7.14 18.785 0 0 0
453 1 9.817499999999999 8.032499999999999 19.6775 0 0 0
454 1 8.032499999999999 8.032499999999999 17.8925 0 0 0
455 1 8.032499999999999 9.817499999999999 19.6775 0 0 0
456 1 9.817499999999999 9.817499999999999 17.8925 0 0 0
457 1 7.14 7.14 20.57 0 0 0
458 1 7.14 8.924999999999999 22.355 0 0 0
459 1 8.924999999999999 8.924999999999999 20.57 0 0 0
460 1 8.924999999999999 7.14 22.355 0 0 0
461 1 9.817499999999999 8.032499999999999 23.2475 0 0 0
462 1 8.032499999999999 8.032499999999999 21.4625 0 0 0
463 1 8.032499999999999 9.817499999999999 23.2475 0 0 0
464 1 9.817499999999999 9.817499999999999 21.4625 0 0 0
465 1 7.14 10.709999999999999 17 0 0 0
466 1 7.14 12.495 18.785 0 0 0
467 1 8.924999999999999 12.495 17 0 0 0
468 1 8.924999999999999 10.709999999999999 18.785 0 0 0
469 1 9.817499999999999 11.6025 19.6775 0 0 0
470 1 8.032499999999999 11.6025 17.8925 0 0 0
471 1 8.032499999999999 13.3875 19.6775 0 0 0
472 1 9.817499999999999 13.3875 17.8925 0 0 0
473 1 7.14 10.709999999999999 20.57 0 0 0
474 1 7.14 12.495 22.355 0 0 0
475 1 8.924999999999999 12.495 20.57 0 0 0
476 1 8.924999999999999 10.709999999999999 22.355 0 0 0
477 1 9.817499999999999 11.6025 23.2475 0 0 0
478 1 8.032499999999999 11.6025 21.4625 0 0 0
479 1 8.032499999999999 13.3875 23.2475 0 0 0
480 1 9.817499999999999 13.3875 21.4625 0 0 0
481 1 7.14 14.28 17 0 0 0
482 1 7.14 16.064999999999998 18.785 0 0 0
483 1 8.924999999999999 16.064999999999998 17 0 0 0
484 1 8.924999999999999 14.28 18.785 0 0 0
485 1 9.817499999999999 15.1725 19.6775 0 0 0
486 1 8.032499999999999 15.1725 17.8925 0 0 0
487 1 8.032499999999999 16.9575 19.6775 0 0 0
488 1 9.817499999999999 16.9575 17.8925 0 0 0
489 1 7.14 14.28 20.57 0 0 0
490 1 7.14 16.064999999999998 22.355 0 0 0
491 1 8.924999999999999 16.064999999999998 20.57 0 0 0
492 1 8.924999999999999 14.28 22.355 0 0 0
493 1 9.817499999999999 15.1725 23.2475 0 0 0
494 1 8.032499999999999 15.1725 21.4625 0 0 0
495 1 8.032499999999999 16.9575 23.2475 0 0 0
496 1 9.817499999999999 16.9575 21.4625 0 0 0
497 1 7.14 17.849999999999998 17 0 0 0
498 1 7.14 19.634999999999998 18.785 0 0 0
499 1 8.924999999999999 19.634999999999998 17 0 0 0
500 1 8.924999999999999 17.849999999999998 18.785 0 0 0
501 1 9.817499999999999 18.742499999999996 19.6775 0 0 0
502 1 8.032499999999999 18.742499999999996 17.8925 0 0 0
503 1 8.032499999999999 20.527499999999996 19.6775 0 0 0
504 1 9.817499999999999 20.527499999999996 17.8925 0 0 0
505 1 7.14 17.849999999999998 20.57 0 0 0
506 1 7.14 19.634999999999998 22.355 0 0 0
507 1 8.924999999999999 19.634999999999998 20.57 0 0 0
508 1 8.924999999999999 17.849999999999998 22.355 0 0 0
509 1 9.817499999999999 18.742499999999996 23.2475 0 0 0
510 1 8.032499999999999 18.742499999999996 21.4625 0 0 0
511 1 8.032499999999999 20.527499999999996 23.2475 0 0 0
512 1 9.817499999999999 20.527499999999996 21.4625 0 0 0
513 1 7.14 21.419999999999998 17 0 0 0
514 1 7.14 23.205 18.785 0 0 0
515 1 8.924999999999999 23.205 17 0 0 0
516 1 8.924999999999999 21.419999999999998 18.785 0 0 0
517 1 9.817499999999999 22.312499999999996 19.6775 0 0 0
518 1 8.032499999999999 22.312499999999996 17.8925 0 0 0
519 1 8.032499999999999 24.097499999999997 19.6775 0 0 0
520 1 9.817499999999999 24.097499999999997 17.8925 0 0 0
521 1 7.14 21.419999999999998 20.57 0 0 0
522 1 7.14 23.205 22.355 0 0 0
523 1 8.924999999999999 23.205 20.57 0 0 0
524 1 8.924999999999999 21.419999999999998 22.355 0 0 0
525 1 9.817499999999999 22.312499999999996 23.2475 0 0 0
526 1 8.032499999999999 22.312499999999996 21.4625 0 0 0
527 1 8.032499999999999 24.097499999999997 23.2475 0 0 0
528 1 9.817499999999999 24.097499999999997 21.4625 0 0 0
529 1 7.14 24.99 17 0 0 0
530 1 7.14 26.775 18.785 0 0 0
531 1 8.924999999999999 26.775 17 0 0 0
532 1 8.924999999999999 24.99 18.785 0 0 0
533 1 9.817499999999999 25.882499999999997 19.6775 0 0 0
534 1 8.032499999999999 25.882499999999997 17.8925 0 0 0
535 1 8.032499999999999 27.667499999999997 19.6775 0 0 0
536 1 9.817499999999999 27.667499999999997 17.8925 0 0 0
537 1 7.14 24.99 20.57 0 0 0
538 1 7.14 26.775 22.355 0 0 0
539 1 8.924999999999999 26.775 20.57 0 0 0
540 1 8.924999999999999 24.99 22.355 0 0 0
541 1 9.817499999999999 25.882499999999997 23.2475 0 0 0
542 1 8.032499999999999 25.882499999999997 21.4625 0 0 0
543 1 8.032499999999999 27.667499999999997 23.2475 0 0 0
544 1 9.817499999999999 27.667499999999997 21.4625 0 0 0
545 1 7.14 28.56 17 0 0 0
546 1 7.14 30.345 18.785 0 0 0
547 1 8.924999999999999 30.345 17 0 0 0
548 1 8.924999999999999 28.56 18.785 0 0 0
549 1 9.817499999999999 29.452499999999997 19.6775 0 0 0
550 1 8.032499999999999 29.452499999999997 17.8925 0 0 0
551 1 8.032499999999999 31.237499999999997 19.6775 0 0 0
552 1 9.817499999999999 31.237499999999997 17.8925 0 0 0
553 1 7.14 28.56 20.57 0 0 0
554 1 7.14 30.345 22.355 0 0 0
555 1 8.924999999999999 30.345 20.57 0 0 0
556 1 8.924999999999999 28.56 22.355 0 0 0
557 1 9.817499999999999 29.452499999999997 23.2475 0 0 0
558 1 8.032499999999999 29.452499999999997 21.4625 0 0 0
559 1 8.032499999999999 31.237499999999997 23.2475 0 0 0
560 1 9.817499999999999 31.237499999999997 21.4625 0 0 0
561 1 7.14 32.129999999999995 17 0 0 0
562 1 7.14 33.91499999999999 18.785 0 0 0
563 1 8.924999999999999 33.91499999999999 17 0 0 0
564 1 8.924999999999999 32.129999999999995 18.785 0 0 0
565 1 9.817499999999999 33.022499999999994 19.6775 0 0 0
566 1 8.032499999999999 33.022499999999994 17.8925 0 0 0
567 1 8.032499999999999 34.8075 19.6775 0 0 0
568 1 9.817499999999999 34.8075 17.8925 0 0 0
569 1 7.14 32.129999999999995 20.57 0 0 0
570 1 7.14 33.91499999999999 22.355 0 0 0
571 1 8.924999999999999 33.91499999999999 20.57 0 0 0
572 1 8.924999999999999 32.129999999999995 22.355 0 0 0
573 1 9.817499999999999 33.022499999999994 23.2475 0 0 0
574 1 8.032499999999999 33.022499999999994 21.4625 0 0 0
575 1 8.032499999999999 34.8075 23.2475 0 0 0
576 1 9.817499999999999 34.8075 21.4625 0 0 0
577 1 7.14 35.699999999999996 17 0 0 0
578 1 7.14 37.48499999999999 18.785 0 0 0
579 1 8.924999999999999 37.48499999999999 17 0 0 0
580 1 8.924999999999999 35.699999999999996 18.785 0 0 0
581 1 9.817499999999999 36.592499999999994 19.6775 0 0 0
582 1 8.032499999999999 36.592499999999994 17.8925 0 0 0
583 1 8.032499999999999 38.3775 19.6775 0 0 0
584 1 9.817499999999999 38.3775 17.8925 0 0 0
585 1 7.14 35.699999999999996 20.57 0 0 0
586 1 7.14 37.48499999999999 22.355 0 0 0
587 1 8.924999999999999 37.48499999999999 20.57 0 0 0
588 1 8.924999999999999 35.699999999999996 22.355 0 0 0
589 1 9.817499999999999 36.592499999999994 23.2475 0 0 0
590 1 8.032499999999999 36.592499999999994 21.4625 0 0 0
591 1 8.032499999999999 38.3775 23.2475 0 0 0
592 1 9.817499999999999 38.3775 21.4625 0 0 0
593 1 7.14 39.269999999999996 17 0 0 0
594 1 7.14 41.05499999999999 18.785 0 0 0
595 1 8.924999999999999 41.05499999999999 17 0 0 0
596 1 8.924999999999999 39.269999999999996 18.785 0 0 0
597 1 9.817499999999999 40.162499999999994 19.6775 0 0 0
598 1 8.032499999999999 40.162499999999994 17.8925 0 0 0
599 1 8.032499999999999 41.9475 19.6775 0 0 0
600 1 9.817499999999999 41.9475 17.8925 0 0 0
601 1 7.14 39.269999999999996 20.57 0 0 0
602 1 7.14 41.05499999999999 22.355 0 0 0
603 1 8.924999999999999 41.05499999999999 20.57 0 0 0
604 1 8.924999999999999 39.269999999999996 22.355 0 0 0
605 1 9.817499999999999 40.162499999999994 23.2475 0 0 0
606 1 8.032499999999999 40.162499999999994 21.4625 0 0 0
607 1 8.032499999999999 41.9475 23.2475 0 0 0
608 1 9.817499999999999 41.9475 21.4625 0 0 0
609 1 7.14 42.839999999999996 17 0 0 0
610 1 7.14 44.62499999999999 18.785 0 0 0
611 1 8.924999999999999 44.62499999999999 17 0 0 0
612 1 8.924999999999999 42.839999999999996 18.785 0 0 0
613 1 9.817499999999999 43.732499999999995 19.6775 0 0 0
614 1 8.032499999999999 43.732499999999995 17.8925 0 0 0
615 1 8.032499999999999 45.5175 19.6775 0 0 0
616 1 9.817499999999999 45.5175 17.8925 0 0 0
617 1 7.14 42.839999999999996 20.57 0 0 0
618 1 7.14 44.62499999999999 22.355 0 0 0
619 1 8.924999999999999 44.62499999999999 20.57 0 0 0
620 1 8.924999999999999 42.839999999999996 22.355 0 0 0
621 1 9.817499999999999 43.732499999999995 23.2475 0 0 0
622 1 8.032499999999999 43.732499999999995 21.4625 0 0 0
623 1 8.032499999999999 45.5175 23.2475 0 0 0
624 1 9.817499999999999 45.5175 21.4625 0 0 0
625 1 10.709999999999999 0 17 0 0 0
626 1 10.709999999999999 1.785 18.785 0 0 0
627 1 12.495 1.785 17 0 0 0
628 1 12.495 0 18.785 0 0 0
629 1 13.3875 0.8925 19.6775 0 0 0
630 1 11.6025 0.8925 17.8925 0 0 0
631 1 11.6025 2.6774999999999998 19.6775 0 0 0
632 1 13.3875 2.6774999999999998 17.8925 0 0 0
633 1 10.709999999999999 0 20.57 0 0 0
634 1 10.709999999999999 1.785 22.355 0 0 0
635 1 12.495 1.785 20.57 0 0 0
636 1 12.495 0 22.355 0 0 0
637 1 13.3875 0.8925 23.2475 0 0 0
638 1 11.6025 0.8925 21.4625 0 0 0
639 1 11.6025 2.6774999999999998 23.2475 0 0 0
640 1 13.3875 2.6774999999999998 21.4625 0 0 0
641 1 10.709999999999999 3.57 17 0 0 0
642 1 10.709999999999999 5.3549999999999995 18.785 0 0 0
643 1 12.495 5.3549999999999995 17 0 0 0
644 1 12.495 3.57 18.785 0 0 0
645 1 13.3875 4.4624999999999995 19.6775 0 0 0
646 1 11.6025 4.4624999999999995 17.8925 0 0 0
647 1 11.6025 6.2475 19.6775 0 0 0
648 1 13.3875 6.2475 17.8925 0 0 0
649 1 10.709999999999999 3.57 20.57 0 0 0
650 1 10.709999999999999 5.3549999999999995 22.355 0 0 0
651 1 12.495 5.3549999999999995 20.57 0 0 0
652 1 12.495 3.57 22.355 0 0 0
653 1 13.3875 4.4624999999999995 23.2475 0 0 0
654 1 11.6025 4.4624999999999995 21.4625 0 0 0
655 1 11.6025 6.2475 23.2475 0 0 0
656 1 13.3875 6.2475 21.4625 0 0 0
657 1 10.709999999999999 7.14 17 0 0 0
658 1 10.709999999999999 8.924999999999999 18.785 0 0 0
659 1 12.495 8.924999999999999 17 0 0 0
660 1 12.495 7.14 18.785 0 0 0
661 1 13.3875 8.032499999999999 19.6775 0 0 0
662 1 11.6025 8.032499999999999 17.8925 0 0 0
663 1 11.6025 9.817499999999999 19.6775 0 0 0
664 1 13.3875 9.817499999999999 17.8925 0 0 0
665 1 10.709999999999999 7.14 20.57 0 0 0
666 1 10.709999999999999 8.924999999999999 22.355 0 0 0
667 1 12.495 8.924999999999999 20.57 0 0 0
668 1 12.495 7.14 22.355 0 0 0
669 1 13.3875 8.032499999999999 23.2475 0 0 0
670 1 11.6025 8.032499999999999 21.4625 0 0 0
671 1 11.6025 9.817499999999999 23.2475 0 0 0
672 1 13.3875 9.817499999999999 21.4625 0 0 0