./tmp_lammps_data.txt (written by ASE) 

8060 	 atoms 
2  atom types
0.0              134.412002  xlo xhi
0.0      163.21894382584938  ylo yhi
0.0  1.9999999999177331e-06  zlo zhi


Atoms 

1 0 1 9.9999999991773336e-07 9.9999999999999995e-07 9.9999999991773336e-07 0 0 0
2 0 1 0.73050100000000007 1.2652641149290651 9.9999999991773336e-07 0 0 0
3 0 1 9.9999999991773336e-07 2.5305272298581301 9.9999999991773336e-07 0 0 0
4 0 1 0.73050100000000007 3.795790344787195 9.9999999991773336e-07 0 0 0
5 0 1 9.9999999991773336e-07 5.06105345971626 9.9999999991773336e-07 0 0 0
6 0 1 0.73050100000000007 6.3263165746453245 9.9999999991773336e-07 0 0 0
7 0 1 9.9999999991773336e-07 7.5915796895743899 9.9999999991773336e-07 0 0 0
8 0 1 0.73050100000000007 8.8568428045034544 9.9999999991773336e-07 0 0 0
9 0 1 9.9999999991773336e-07 10.122105919432519 9.9999999991773336e-07 0 0 0
10 0 1 0.73050100000000007 11.387369034361583 9.9999999991773336e-07 0 0 0
11 0 1 9.9999999991773336e-07 12.652632149290648 9.9999999991773336e-07 0 0 0
12 0 1 0.73050100000000007 13.917895264219712 9.9999999991773336e-07 0 0 0
13 0 1 9.9999999991773336e-07 15.183158379148779 9.9999999991773336e-07 0 0 0
14 0 1 0.73050100000000007 16.448421494077841 9.9999999991773336e-07 0 0 0
15 0 1 9.9999999991773336e-07 17.713684609006908 9.9999999991773336e-07 0 0 0
16 0 1 0.73050100000000007 18.978947723935974 9.9999999991773336e-07 0 0 0
17 0 1 9.9999999991773336e-07 20.244210838865037 9.9999999991773336e-07 0 0 0
18 0 1 0.73050100000000007 21.509473953794103 9.9999999991773336e-07 0 0 0
19 0 1 9.9999999991773336e-07 22.774737068723166 9.9999999991773336e-07 0 0 0
20 0 1 0.73050100000000007 24.040000183652232 9.9999999991773336e-07 0 0 0
21 0 1 9.9999999991773336e-07 25.305263298581295 9.9999999991773336e-07 0 0 0
22 0 1 0.73050100000000007 26.570526413510361 9.9999999991773336e-07 0 0 0
23 0 1 9.9999999991773336e-07 27.835789528439427 9.9999999991773336e-07 0 0 0
24 0 1 0.73050100000000007 29.101052643368494 9.9999999991773336e-07 0 0 0
25 0 1 9.9999999991773336e-07 30.366315758297556 9.9999999991773336e-07 0 0 0
26 0 1 0.73050100000000007 31.631578873226623 9.9999999991773336e-07 0 0 0
27 0 1 9.9999999991773336e-07 32.896841988155693 9.9999999991773336e-07 0 0 0
28 0 1 0.73050100000000007 34.162105103084755 9.9999999991773336e-07 0 0 0
29 0 1 9.9999999991773336e-07 35.427368218013825 9.9999999991773336e-07 0 0 0
30 0 1 0.73050100000000007 36.692631332942888 9.9999999991773336e-07 0 0 0
31 0 1 9.9999999991773336e-07 37.957894447871951 9.9999999991773336e-07 0 0 0
32 0 1 0.73050100000000007 39.223157562801013 9.9999999991773336e-07 0 0 0
33 0 1 9.9999999991773336e-07 40.488420677730083 9.9999999991773336e-07 0 0 0
34 0 1 0.73050100000000007 41.753683792659146 9.9999999991773336e-07 0 0 0
35 0 1 9.9999999991773336e-07 43.018946907588216 9.9999999991773336e-07 0 0 0
36 0 1 0.73050100000000007 44.284210022517279 9.9999999991773336e-07 0 0 0
37 0 1 9.9999999991773336e-07 45.549473137446341 9.9999999991773336e-07 0 0 0
38 0 1 0.73050100000000007 46.814736252375404 9.9999999991773336e-07 0 0 0
39 0 1 9.9999999991773336e-07 48.079999367304474 9.9999999991773336e-07 0 0 0
40 0 1 0.73050100000000007 49.345262482233537 9.9999999991773336e-07 0 0 0
41 0 1 9.9999999991773336e-07 50.610525597162599 9.9999999991773336e-07 0 0 0
42 0 1 0.73050100000000007 51.875788712091662 9.9999999991773336e-07 0 0 0
43 0 1 9.9999999991773336e-07 53.141051827020732 9.9999999991773336e-07 0 0 0
44 0 1 0.73050100000000007 54.406314941949795 9.9999999991773336e-07 0 0 0
45 0 1 9.9999999991773336e-07 55.671578056878865 9.9999999991773336e-07 0 0 0
46 0 1 0.73050100000000007 56.936841171807927 9.9999999991773336e-07 0 0 0
47 0 1 9.9999999991773336e-07 58.20210428673699 9.9999999991773336e-07 0 0 0
48 0 1 0.73050100000000007 59.467367401666053 9.9999999991773336e-07 0 0 0
49 0 1 9.9999999991773336e-07 60.732630516595123 9.9999999991773336e-07 0 0 0
50 0 1 0.73050100000000007 61.997893631524185 9.9999999991773336e-07 0 0 0
51 0 1 9.9999999991773336e-07 63.263156746453255 9.9999999991773336e-07 0 0 0
52 0 1 0.73050100000000007 64.528419861382318 9.9999999991773336e-07 0 0 0
53 0 1 9.9999999991773336e-07 65.793682976311374 9.9999999991773336e-07 0 0 0
54 0 1 0.73050100000000007 67.058946091240443 9.9999999991773336e-07 0 0 0
55 0 1 9.9999999991773336e-07 68.324209206169499 9.9999999991773336e-07 0 0 0
56 0 1 0.73050100000000007 69.589472321098569 9.9999999991773336e-07 0 0 0
57 0 1 9.9999999991773336e-07 70.854735436027639 9.9999999991773336e-07 0 0 0
58 0 1 0.73050100000000007 72.119998550956709 9.9999999991773336e-07 0 0 0
59 0 1 9.9999999991773336e-07 73.385261665885764 9.9999999991773336e-07 0 0 0
60 0 1 0.73050100000000007 74.650524780814834 9.9999999991773336e-07 0 0 0
61 0 1 9.9999999991773336e-07 75.91578789574389 9.9999999991773336e-07 0 0 0
62 0 1 0.73050100000000007 77.181051010672959 9.9999999991773336e-07 0 0 0
63 0 1 9.9999999991773336e-07 78.446314125602029 9.9999999991773336e-07 0 0 0
64 0 1 0.73050100000000007 79.711577240531099 9.9999999991773336e-07 0 0 0
65 0 1 9.9999999991773336e-07 80.976840355460155 9.9999999991773336e-07 0 0 0
66 0 1 0.73050100000000007 82.242103470389225 9.9999999991773336e-07 0 0 0
67 0 1 9.9999999991773336e-07 83.50736658531828 9.9999999991773336e-07 0 0 0
68 0 1 0.73050100000000007 84.77262970024735 9.9999999991773336e-07 0 0 0
69 0 1 9.9999999991773336e-07 86.03789281517642 9.9999999991773336e-07 0 0 0
70 0 1 0.73050100000000007 87.30315593010549 9.9999999991773336e-07 0 0 0
71 0 1 9.9999999991773336e-07 88.568419045034545 9.9999999991773336e-07 0 0 0
72 0 1 0.73050100000000007 89.833682159963615 9.9999999991773336e-07 0 0 0
73 0 1 9.9999999991773336e-07 91.098945274892671 9.9999999991773336e-07 0 0 0
74 0 1 0.73050100000000007 92.364208389821741 9.9999999991773336e-07 0 0 0
75 0 1 9.9999999991773336e-07 93.629471504750811 9.9999999991773336e-07 0 0 0
76 0 1 0.73050100000000007 94.89473461967988 9.9999999991773336e-07 0 0 0
77 0 1 9.9999999991773336e-07 96.159997734608936 9.9999999991773336e-07 0 0 0
78 0 1 0.73050100000000007 97.425260849538006 9.9999999991773336e-07 0 0 0
79 0 1 9.9999999991773336e-07 98.690523964467062 9.9999999991773336e-07 0 0 0
80 0 1 0.73050100000000007 99.955787079396131 9.9999999991773336e-07 0 0 0
81 0 1 9.9999999991773336e-07 101.22105019432519 9.9999999991773336e-07 0 0 0
82 0 1 0.73050100000000007 102.48631330925426 9.9999999991773336e-07 0 0 0
83 0 1 9.9999999991773336e-07 103.75157642418333 9.9999999991773336e-07 0 0 0
84 0 1 0.73050100000000007 105.0168395391124 9.9999999991773336e-07 0 0 0
85 0 1 9.9999999991773336e-07 106.28210265404145 9.9999999991773336e-07 0 0 0
86 0 1 0.73050100000000007 107.54736576897052 9.9999999991773336e-07 0 0 0
87 0 1 9.9999999991773336e-07 108.81262888389958 9.9999999991773336e-07 0 0 0
88 0 1 0.73050100000000007 110.07789199882865 9.9999999991773336e-07 0 0 0
89 0 1 9.9999999991773336e-07 111.34315511375772 9.9999999991773336e-07 0 0 0
90 0 1 0.73050100000000007 112.60841822868679 9.9999999991773336e-07 0 0 0
91 0 1 9.9999999991773336e-07 113.87368134361584 9.9999999991773336e-07 0 0 0
92 0 1 0.73050100000000007 115.13894445854491 9.9999999991773336e-07 0 0 0
93 0 1 9.9999999991773336e-07 116.40420757347397 9.9999999991773336e-07 0 0 0
94 0 1 0.73050100000000007 117.66947068840304 9.9999999991773336e-07 0 0 0
95 0 1 9.9999999991773336e-07 118.93473380333211 9.9999999991773336e-07 0 0 0
96 0 1 0.73050100000000007 120.19999691826118 9.9999999991773336e-07 0 0 0
97 0 1 9.9999999991773336e-07 121.46526003319023 9.9999999991773336e-07 0 0 0
98 0 1 0.73050100000000007 122.7305231481193 9.9999999991773336e-07 0 0 0
99 0 1 9.9999999991773336e-07 123.99578626304836 9.9999999991773336e-07 0 0 0
100 0 1 0.73050100000000007 125.26104937797743 9.9999999991773336e-07 0 0 0
101 0 1 9.9999999991773336e-07 126.5263124929065 9.9999999991773336e-07 0 0 0
102 0 1 0.73050100000000007 127.79157560783557 9.9999999991773336e-07 0 0 0
103 0 1 9.9999999991773336e-07 129.05683872276461 9.9999999991773336e-07 0 0 0
104 0 1 0.73050100000000007 130.32210183769368 9.9999999991773336e-07 0 0 0
105 0 1 9.9999999991773336e-07 131.58736495262275 9.9999999991773336e-07 0 0 0
106 0 1 0.73050100000000007 132.85262806755182 9.9999999991773336e-07 0 0 0
107 0 1 9.9999999991773336e-07 134.11789118248089 9.9999999991773336e-07 0 0 0
108 0 1 0.73050100000000007 135.38315429740996 9.9999999991773336e-07 0 0 0
109 0 1 9.9999999991773336e-07 136.648417412339 9.9999999991773336e-07 0 0 0
110 0 1 0.73050100000000007 137.91368052726807 9.9999999991773336e-07 0 0 0
111 0 1 9.9999999991773336e-07 139.17894364219714 9.9999999991773336e-07 0 0 0
112 0 1 0.73050100000000007 140.44420675712621 9.9999999991773336e-07 0 0 0
113 0 1 9.9999999991773336e-07 141.70946987205528 9.9999999991773336e-07 0 0 0
114 0 1 0.73050100000000007 142.97473298698435 9.9999999991773336e-07 0 0 0
115 0 1 9.9999999991773336e-07 144.23999610191339 9.9999999991773336e-07 0 0 0
116 0 1 0.73050100000000007 145.50525921684246 9.9999999991773336e-07 0 0 0
117 0 1 9.9999999991773336e-07 146.77052233177153 9.9999999991773336e-07 0 0 0
118 0 1 0.73050100000000007 148.0357854467006 9.9999999991773336e-07 0 0 0
119 0 1 9.9999999991773336e-07 149.30104856162967 9.9999999991773336e-07 0 0 0
120 0 1 0.73050100000000007 150.56631167655874 9.9999999991773336e-07 0 0 0
121 0 1 9.9999999991773336e-07 151.83157479148778 9.9999999991773336e-07 0 0 0
122 0 1 0.73050100000000007 153.09683790641685 9.9999999991773336e-07 0 0 0
123 0 1 9.9999999991773336e-07 154.36210102134592 9.9999999991773336e-07 0 0 0
124 0 1 0.73050100000000007 155.62736413627499 9.9999999991773336e-07 0 0 0
125 0 1 9.9999999991773336e-07 156.89262725120406 9.9999999991773336e-07 0 0 0
126 0 1 0.73050100000000007 158.15789036613313 9.9999999991773336e-07 0 0 0
127 0 1 9.9999999991773336e-07 159.42315348106217 9.9999999991773336e-07 0 0 0
128 0 1 0.73050100000000007 160.68841659599124 9.9999999991773336e-07 0 0 0
129 0 1 9.9999999991773336e-07 161.95367971092031 9.9999999991773336e-07 0 0 0
130 0 1 0.73050100000000007 163.21894282584938 9.9999999991773336e-07 0 0 0
131 0 1 2.9220010000000007 9.9999999999999995e-07 9.9999999991773336e-07 0 0 0
132 0 1 2.1915009999999997 1.2652641149290651 9.9999999991773336e-07 0 0 0
133 0 1 2.9220010000000007 2.5305272298581301 9.9999999991773336e-07 0 0 0
134 0 1 2.1915009999999997 3.795790344787195 9.9999999991773336e-07 0 0 0
135 0 1 2.9220010000000007 5.06105345971626 9.9999999991773336e-07 0 0 0
136 0 1 2.1915009999999997 6.3263165746453245 9.9999999991773336e-07 0 0 0
137 0 1 2.9220010000000007 7.591579689574389 9.9999999991773336e-07 0 0 0
138 0 1 2.1915009999999997 8.8568428045034544 9.9999999991773336e-07 0 0 0
139 0 1 2.9220010000000007 10.122105919432519 9.9999999991773336e-07 0 0 0
140 0 1 2.1915009999999997 11.387369034361583 9.9999999991773336e-07 0 0 0
141 0 1 2.9220010000000007 12.652632149290648 9.9999999991773336e-07 0 0 0
142 0 1 2.1915009999999997 13.917895264219712 9.9999999991773336e-07 0 0 0
143 0 1 2.9220010000000007 15.183158379148777 9.9999999991773336e-07 0 0 0
144 0 1 2.1915009999999997 16.448421494077841 9.9999999991773336e-07 0 0 0
145 0 1 2.9220010000000007 17.713684609006908 9.9999999991773336e-07 0 0 0
146 0 1 2.1915009999999997 18.978947723935974 9.9999999991773336e-07 0 0 0
147 0 1 2.9220010000000007 20.24421083886504 9.9999999991773336e-07 0 0 0
148 0 1 2.1915009999999997 21.509473953794103 9.9999999991773336e-07 0 0 0
149 0 1 2.9220010000000007 22.774737068723169 9.9999999991773336e-07 0 0 0
150 0 1 2.1915009999999997 24.040000183652232 9.9999999991773336e-07 0 0 0
151 0 1 2.9220010000000007 25.305263298581298 9.9999999991773336e-07 0 0 0
152 0 1 2.1915009999999997 26.570526413510361 9.9999999991773336e-07 0 0 0
153 0 1 2.9220010000000007 27.835789528439427 9.9999999991773336e-07 0 0 0
154 0 1 2.1915009999999997 29.101052643368494 9.9999999991773336e-07 0 0 0
155 0 1 2.9220010000000007 30.36631575829756 9.9999999991773336e-07 0 0 0
156 0 1 2.1915009999999997 31.631578873226623 9.9999999991773336e-07 0 0 0
157 0 1 2.9220010000000007 32.896841988155693 9.9999999991773336e-07 0 0 0
158 0 1 2.1915009999999997 34.162105103084755 9.9999999991773336e-07 0 0 0
159 0 1 2.9220010000000007 35.427368218013818 9.9999999991773336e-07 0 0 0
160 0 1 2.1915009999999997 36.692631332942888 9.9999999991773336e-07 0 0 0
161 0 1 2.9220010000000007 37.957894447871951 9.9999999991773336e-07 0 0 0
162 0 1 2.1915009999999997 39.223157562801013 9.9999999991773336e-07 0 0 0
163 0 1 2.9220010000000007 40.488420677730076 9.9999999991773336e-07 0 0 0
164 0 1 2.1915009999999997 41.753683792659146 9.9999999991773336e-07 0 0 0
165 0 1 2.9220010000000007 43.018946907588209 9.9999999991773336e-07 0 0 0
166 0 1 2.1915009999999997 44.284210022517279 9.9999999991773336e-07 0 0 0
167 0 1 2.9220010000000007 45.549473137446341 9.9999999991773336e-07 0 0 0
168 0 1 2.1915009999999997 46.814736252375404 9.9999999991773336e-07 0 0 0
169 0 1 2.9220010000000007 48.079999367304467 9.9999999991773336e-07 0 0 0
170 0 1 2.1915009999999997 49.345262482233537 9.9999999991773336e-07 0 0 0
171 0 1 2.9220010000000007 50.610525597162599 9.9999999991773336e-07 0 0 0
172 0 1 2.1915009999999997 51.875788712091662 9.9999999991773336e-07 0 0 0
173 0 1 2.9220010000000007 53.141051827020725 9.9999999991773336e-07 0 0 0
174 0 1 2.1915009999999997 54.406314941949795 9.9999999991773336e-07 0 0 0
175 0 1 2.9220010000000007 55.671578056878857 9.9999999991773336e-07 0 0 0
176 0 1 2.1915009999999997 56.936841171807927 9.9999999991773336e-07 0 0 0
177 0 1 2.9220010000000007 58.20210428673699 9.9999999991773336e-07 0 0 0
178 0 1 2.1915009999999997 59.467367401666053 9.9999999991773336e-07 0 0 0
179 0 1 2.9220010000000007 60.732630516595115 9.9999999991773336e-07 0 0 0
180 0 1 2.1915009999999997 61.997893631524185 9.9999999991773336e-07 0 0 0
181 0 1 2.9220010000000007 63.263156746453248 9.9999999991773336e-07 0 0 0
182 0 1 2.1915009999999997 64.528419861382318 9.9999999991773336e-07 0 0 0
183 0 1 2.9220010000000007 65.793682976311388 9.9999999991773336e-07 0 0 0
184 0 1 2.1915009999999997 67.058946091240443 9.9999999991773336e-07 0 0 0
185 0 1 2.9220010000000007 68.324209206169513 9.9999999991773336e-07 0 0 0
186 0 1 2.1915009999999997 69.589472321098569 9.9999999991773336e-07 0 0 0
187 0 1 2.9220010000000007 70.854735436027639 9.9999999991773336e-07 0 0 0
188 0 1 2.1915009999999997 72.119998550956709 9.9999999991773336e-07 0 0 0
189 0 1 2.9220010000000007 73.385261665885778 9.9999999991773336e-07 0 0 0
190 0 1 2.1915009999999997 74.650524780814834 9.9999999991773336e-07 0 0 0
191 0 1 2.9220010000000007 75.915787895743904 9.9999999991773336e-07 0 0 0
192 0 1 2.1915009999999997 77.181051010672959 9.9999999991773336e-07 0 0 0
193 0 1 2.9220010000000007 78.446314125602029 9.9999999991773336e-07 0 0 0
194 0 1 2.1915009999999997 79.711577240531099 9.9999999991773336e-07 0 0 0
195 0 1 2.9220010000000007 80.976840355460169 9.9999999991773336e-07 0 0 0
196 0 1 2.1915009999999997 82.242103470389225 9.9999999991773336e-07 0 0 0
197 0 1 2.9220010000000007 83.507366585318294 9.9999999991773336e-07 0 0 0
198 0 1 2.1915009999999997 84.77262970024735 9.9999999991773336e-07 0 0 0
199 0 1 2.9220010000000007 86.03789281517642 9.9999999991773336e-07 0 0 0
200 0 1 2.1915009999999997 87.30315593010549 9.9999999991773336e-07 0 0 0
201 0 1 2.9220010000000007 88.56841904503456 9.9999999991773336e-07 0 0 0
202 0 1 2.1915009999999997 89.833682159963615 9.9999999991773336e-07 0 0 0
203 0 1 2.9220010000000007 91.098945274892685 9.9999999991773336e-07 0 0 0
204 0 1 2.1915009999999997 92.364208389821741 9.9999999991773336e-07 0 0 0
205 0 1 2.9220010000000007 93.629471504750811 9.9999999991773336e-07 0 0 0
206 0 1 2.1915009999999997 94.89473461967988 9.9999999991773336e-07 0 0 0
207 0 1 2.9220010000000007 96.15999773460895 9.9999999991773336e-07 0 0 0
208 0 1 2.1915009999999997 97.425260849538006 9.9999999991773336e-07 0 0 0
209 0 1 2.9220010000000007 98.690523964467076 9.9999999991773336e-07 0 0 0
210 0 1 2.1915009999999997 99.955787079396131 9.9999999991773336e-07 0 0 0
211 0 1 2.9220010000000007 101.2210501943252 9.9999999991773336e-07 0 0 0
212 0 1 2.1915009999999997 102.48631330925426 9.9999999991773336e-07 0 0 0
213 0 1 2.9220010000000007 103.75157642418333 9.9999999991773336e-07 0 0 0
214 0 1 2.1915009999999997 105.0168395391124 9.9999999991773336e-07 0 0 0
215 0 1 2.9220010000000007 106.28210265404147 9.9999999991773336e-07 0 0 0
216 0 1 2.1915009999999997 107.54736576897052 9.9999999991773336e-07 0 0 0
217 0 1 2.9220010000000007 108.81262888389959 9.9999999991773336e-07 0 0 0
218 0 1 2.1915009999999997 110.07789199882865 9.9999999991773336e-07 0 0 0
219 0 1 2.9220010000000007 111.34315511375772 9.9999999991773336e-07 0 0 0
220 0 1 2.1915009999999997 112.60841822868679 9.9999999991773336e-07 0 0 0
221 0 1 2.9220010000000007 113.87368134361586 9.9999999991773336e-07 0 0 0
222 0 1 2.1915009999999997 115.13894445854491 9.9999999991773336e-07 0 0 0
223 0 1 2.9220010000000007 116.40420757347398 9.9999999991773336e-07 0 0 0
224 0 1 2.1915009999999997 117.66947068840304 9.9999999991773336e-07 0 0 0
225 0 1 2.9220010000000007 118.93473380333211 9.9999999991773336e-07 0 0 0
226 0 1 2.1915009999999997 120.19999691826118 9.9999999991773336e-07 0 0 0
227 0 1 2.9220010000000007 121.46526003319025 9.9999999991773336e-07 0 0 0
228 0 1 2.1915009999999997 122.7305231481193 9.9999999991773336e-07 0 0 0
229 0 1 2.9220010000000007 123.99578626304837 9.9999999991773336e-07 0 0 0
230 0 1 2.1915009999999997 125.26104937797743 9.9999999991773336e-07 0 0 0
231 0 1 2.9220010000000007 126.5263124929065 9.9999999991773336e-07 0 0 0
232 0 1 2.1915009999999997 127.79157560783557 9.9999999991773336e-07 0 0 0
233 0 1 2.9220010000000007 129.05683872276464 9.9999999991773336e-07 0 0 0
234 0 1 2.1915009999999997 130.32210183769368 9.9999999991773336e-07 0 0 0
235 0 1 2.9220010000000007 131.58736495262275 9.9999999991773336e-07 0 0 0
236 0 1 2.1915009999999997 132.85262806755182 9.9999999991773336e-07 0 0 0
237 0 1 2.9220010000000007 134.11789118248089 9.9999999991773336e-07 0 0 0
238 0 1 2.1915009999999997 135.38315429740996 9.9999999991773336e-07 0 0 0
239 0 1 2.9220010000000007 136.64841741233903 9.9999999991773336e-07 0 0 0
240 0 1 2.1915009999999997 137.91368052726807 9.9999999991773336e-07 0 0 0
241 0 1 2.9220010000000007 139.17894364219714 9.9999999991773336e-07 0 0 0
242 0 1 2.1915009999999997 140.44420675712621 9.9999999991773336e-07 0 0 0
243 0 1 2.9220010000000007 141.70946987205528 9.9999999991773336e-07 0 0 0
244 0 1 2.1915009999999997 142.97473298698435 9.9999999991773336e-07 0 0 0
245 0 1 2.9220010000000007 144.23999610191342 9.9999999991773336e-07 0 0 0
246 0 1 2.1915009999999997 145.50525921684246 9.9999999991773336e-07 0 0 0
247 0 1 2.9220010000000007 146.77052233177153 9.9999999991773336e-07 0 0 0
248 0 1 2.1915009999999997 148.0357854467006 9.9999999991773336e-07 0 0 0
249 0 1 2.9220010000000007 149.30104856162967 9.9999999991773336e-07 0 0 0
250 0 1 2.1915009999999997 150.56631167655874 9.9999999991773336e-07 0 0 0
251 0 1 2.9220010000000007 151.83157479148781 9.9999999991773336e-07 0 0 0
252 0 1 2.1915009999999997 153.09683790641685 9.9999999991773336e-07 0 0 0
253 0 1 2.9220010000000007 154.36210102134592 9.9999999991773336e-07 0 0 0
254 0 1 2.1915009999999997 155.62736413627499 9.9999999991773336e-07 0 0 0
255 0 1 2.9220010000000007 156.89262725120406 9.9999999991773336e-07 0 0 0
256 0 1 2.1915009999999997 158.15789036613313 9.9999999991773336e-07 0 0 0
257 0 1 2.9220010000000007 159.4231534810622 9.9999999991773336e-07 0 0 0
258 0 1 2.1915009999999997 160.68841659599124 9.9999999991773336e-07 0 0 0
259 0 1 2.9220010000000007 161.95367971092031 9.9999999991773336e-07 0 0 0
260 0 1 2.1915009999999997 163.21894282584938 9.9999999991773336e-07 0 0 0
261 0 1 4.3830010000000001 9.9999999999999995e-07 9.9999999991773336e-07 0 0 0
262 0 1 5.1135010000000003 1.2652641149290651 9.9999999991773336e-07 0 0 0
263 0 1 4.3830010000000001 2.5305272298581301 9.9999999991773336e-07 0 0 0
264 0 1 5.1135010000000003 3.795790344787195 9.9999999991773336e-07 0 0 0
265 0 1 4.3830010000000001 5.06105345971626 9.9999999991773336e-07 0 0 0
266 0 1 5.1135010000000003 6.3263165746453245 9.9999999991773336e-07 0 0 0
267 0 1 4.3830010000000001 7.5915796895743899 9.9999999991773336e-07 0 0 0
268 0 1 5.1135010000000003 8.8568428045034544 9.9999999991773336e-07 0 0 0
269 0 1 4.3830010000000001 10.122105919432519 9.9999999991773336e-07 0 0 0
270 0 1 5.1135010000000003 11.387369034361583 9.9999999991773336e-07 0 0 0
271 0 1 4.3830010000000001 12.652632149290648 9.9999999991773336e-07 0 0 0
272 0 1 5.1135010000000003 13.917895264219712 9.9999999991773336e-07 0 0 0
273 0 1 4.3830010000000001 15.183158379148779 9.9999999991773336e-07 0 0 0
274 0 1 5.1135010000000003 16.448421494077841 9.9999999991773336e-07 0 0 0
275 0 1 4.3830010000000001 17.713684609006908 9.9999999991773336e-07 0 0 0
276 0 1 5.1135010000000003 18.978947723935974 9.9999999991773336e-07 0 0 0
277 0 1 4.3830010000000001 20.244210838865037 9.9999999991773336e-07 0 0 0
278 0 1 5.1135010000000003 21.509473953794103 9.9999999991773336e-07 0 0 0
279 0 1 4.3830010000000001 22.774737068723166 9.9999999991773336e-07 0 0 0
280 0 1 5.1135010000000003 24.040000183652232 9.9999999991773336e-07 0 0 0
281 0 1 4.3830010000000001 25.305263298581295 9.9999999991773336e-07 0 0 0
282 0 1 5.1135010000000003 26.570526413510361 9.9999999991773336e-07 0 0 0
283 0 1 4.3830010000000001 27.835789528439427 9.9999999991773336e-07 0 0 0
284 0 1 5.1135010000000003 29.101052643368494 9.9999999991773336e-07 0 0 0
285 0 1 4.3830010000000001 30.366315758297556 9.9999999991773336e-07 0 0 0
286 0 1 5.1135010000000003 31.631578873226623 9.9999999991773336e-07 0 0 0
287 0 1 4.3830010000000001 32.896841988155693 9.9999999991773336e-07 0 0 0
288 0 1 5.1135010000000003 34.162105103084755 9.9999999991773336e-07 0 0 0
289 0 1 4.3830010000000001 35.427368218013825 9.9999999991773336e-07 0 0 0
290 0 1 5.1135010000000003 36.692631332942888 9.9999999991773336e-07 0 0 0
291 0 1 4.3830010000000001 37.957894447871951 9.9999999991773336e-07 0 0 0
292 0 1 5.1135010000000003 39.223157562801013 9.9999999991773336e-07 0 0 0
293 0 1 4.3830010000000001 40.488420677730083 9.9999999991773336e-07 0 0 0
294 0 1 5.1135010000000003 41.753683792659146 9.9999999991773336e-07 0 0 0
295 0 1 4.3830010000000001 43.018946907588216 9.9999999991773336e-07 0 0 0
296 0 1 5.1135010000000003 44.284210022517279 9.9999999991773336e-07 0 0 0
297 0 1 4.3830010000000001 45.549473137446341 9.9999999991773336e-07 0 0 0
298 0 1 5.1135010000000003 46.814736252375404 9.9999999991773336e-07 0 0 0
299 0 1 4.3830010000000001 48.079999367304474 9.9999999991773336e-07 0 0 0
300 0 1 5.1135010000000003 49.345262482233537 9.9999999991773336e-07 0 0 0
301 0 1 4.3830010000000001 50.610525597162599 9.9999999991773336e-07 0 0 0
302 0 1 5.1135010000000003 51.875788712091662 9.9999999991773336e-07 0 0 0
303 0 1 4.3830010000000001 53.141051827020732 9.9999999991773336e-07 0 0 0
304 0 1 5.1135010000000003 54.406314941949795 9.9999999991773336e-07 0 0 0
305 0 1 4.3830010000000001 55.671578056878865 9.9999999991773336e-07 0 0 0
306 0 1 5.1135010000000003 56.936841171807927 9.9999999991773336e-07 0 0 0
307 0 1 4.3830010000000001 58.20210428673699 9.9999999991773336e-07 0 0 0
308 0 1 5.1135010000000003 59.467367401666053 9.9999999991773336e-07 0 0 0
309 0 1 4.3830010000000001 60.732630516595123 9.9999999991773336e-07 0 0 0
310 0 1 5.1135010000000003 61.997893631524185 9.9999999991773336e-07 0 0 0
311 0 1 4.3830010000000001 63.263156746453255 9.9999999991773336e-07 0 0 0
312 0 1 5.1135010000000003 64.528419861382318 9.9999999991773336e-07 0 0 0
313 0 1 4.3830010000000001 65.793682976311374 9.9999999991773336e-07 0 0 0
314 0 1 5.1135010000000003 67.058946091240443 9.9999999991773336e-07 0 0 0
315 0 1 4.3830010000000001 68.324209206169499 9.9999999991773336e-07 0 0 0
316 0 1 5.1135010000000003 69.589472321098569 9.9999999991773336e-07 0 0 0
317 0 1 4.3830010000000001 70.854735436027639 9.9999999991773336e-07 0 0 0
318 0 1 5.1135010000000003 72.119998550956709 9.9999999991773336e-07 0 0 0
319 0 1 4.3830010000000001 73.385261665885764 9.9999999991773336e-07 0 0 0
320 0 1 5.1135010000000003 74.650524780814834 9.9999999991773336e-07 0 0 0
321 0 1 4.3830010000000001 75.91578789574389 9.9999999991773336e-07 0 0 0
322 0 1 5.1135010000000003 77.181051010672959 9.9999999991773336e-07 0 0 0
323 0 1 4.3830010000000001 78.446314125602029 9.9999999991773336e-07 0 0 0
324 0 1 5.1135010000000003 79.711577240531099 9.9999999991773336e-07 0 0 0
325 0 1 4.3830010000000001 80.976840355460155 9.9999999991773336e-07 0 0 0
326 0 1 5.1135010000000003 82.242103470389225 9.9999999991773336e-07 0 0 0
327 0 1 4.3830010000000001 83.50736658531828 9.9999999991773336e-07 0 0 0
328 0 1 5.1135010000000003 84.77262970024735 9.9999999991773336e-07 0 0 0
329 0 1 4.3830010000000001 86.03789281517642 9.9999999991773336e-07 0 0 0
330 0 1 5.1135010000000003 87.30315593010549 9.9999999991773336e-07 0 0 0
331 0 1 4.3830010000000001 88.568419045034545 9.9999999991773336e-07 0 0 0
332 0 1 5.1135010000000003 89.833682159963615 9.9999999991773336e-07 0 0 0
333 0 1 4.3830010000000001 91.098945274892671 9.9999999991773336e-07 0 0 0
334 0 1 5.1135010000000003 92.364208389821741 9.9999999991773336e-07 0 0 0
335 0 1 4.3830010000000001 93.629471504750811 9.9999999991773336e-07 0 0 0
336 0 1 5.1135010000000003 94.89473461967988 9.9999999991773336e-07 0 0 0
337 0 1 4.3830010000000001 96.159997734608936 9.9999999991773336e-07 0 0 0
338 0 1 5.1135010000000003 97.425260849538006 9.9999999991773336e-07 0 0 0
339 0 1 4.3830010000000001 98.690523964467062 9.9999999991773336e-07 0 0 0
340 0 1 5.1135010000000003 99.955787079396131 9.9999999991773336e-07 0 0 0
341 0 1 4.3830010000000001 101.22105019432519 9.9999999991773336e-07 0 0 0
342 0 1 5.1135010000000003 102.48631330925426 9.9999999991773336e-07 0 0 0
343 0 1 4.3830010000000001 103.75157642418333 9.9999999991773336e-07 0 0 0
344 0 1 5.1135010000000003 105.0168395391124 9.9999999991773336e-07 0 0 0
345 0 1 4.3830010000000001 106.28210265404145 9.9999999991773336e-07 0 0 0
346 0 1 5.1135010000000003 107.54736576897052 9.9999999991773336e-07 0 0 0
347 0 1 4.3830010000000001 108.81262888389958 9.9999999991773336e-07 0 0 0
348 0 1 5.1135010000000003 110.07789199882865 9.9999999991773336e-07 0 0 0
349 0 1 4.3830010000000001 111.34315511375772 9.9999999991773336e-07 0 0 0
350 0 1 5.1135010000000003 112.60841822868679 9.9999999991773336e-07 0 0 0
351 0 1 4.3830010000000001 113.87368134361584 9.9999999991773336e-07 0 0 0
352 0 1 5.1135010000000003 115.13894445854491 9.9999999991773336e-07 0 0 0
353 0 1 4.3830010000000001 116.40420757347397 9.9999999991773336e-07 0 0 0
354 0 1 5.1135010000000003 117.66947068840304 9.9999999991773336e-07 0 0 0
355 0 1 4.3830010000000001 118.93473380333211 9.9999999991773336e-07 0 0 0
356 0 1 5.1135010000000003 120.19999691826118 9.9999999991773336e-07 0 0 0
357 0 1 4.3830010000000001 121.46526003319023 9.9999999991773336e-07 0 0 0
358 0 1 5.1135010000000003 122.7305231481193 9.9999999991773336e-07 0 0 0
359 0 1 4.3830010000000001 123.99578626304836 9.9999999991773336e-07 0 0 0
360 0 1 5.1135010000000003 125.26104937797743 9.9999999991773336e-07 0 0 0
361 0 1 4.3830010000000001 126.5263124929065 9.9999999991773336e-07 0 0 0
362 0 1 5.1135010000000003 127.79157560783557 9.9999999991773336e-07 0 0 0
363 0 1 4.3830010000000001 129.05683872276461 9.9999999991773336e-07 0 0 0
364 0 1 5.1135010000000003 130.32210183769368 9.9999999991773336e-07 0 0 0
365 0 1 4.3830010000000001 131.58736495262275 9.9999999991773336e-07 0 0 0
366 0 1 5.1135010000000003 132.85262806755182 9.9999999991773336e-07 0 0 0
367 0 1 4.3830010000000001 134.11789118248089 9.9999999991773336e-07 0 0 0
368 0 1 5.1135010000000003 135.38315429740996 9.9999999991773336e-07 0 0 0
369 0 1 4.3830010000000001 136.648417412339 9.9999999991773336e-07 0 0 0
370 0 1 5.1135010000000003 137.91368052726807 9.9999999991773336e-07 0 0 0
371 0 1 4.3830010000000001 139.17894364219714 9.9999999991773336e-07 0 0 0
372 0 1 5.1135010000000003 140.44420675712621 9.9999999991773336e-07 0 0 0
373 0 1 4.3830010000000001 141.70946987205528 9.9999999991773336e-07 0 0 0
374 0 1 5.1135010000000003 142.97473298698435 9.9999999991773336e-07 0 0 0
375 0 1 4.3830010000000001 144.23999610191339 9.9999999991773336e-07 0 0 0
376 0 1 5.1135010000000003 145.50525921684246 9.9999999991773336e-07 0 0 0
377 0 1 4.3830010000000001 146.77052233177153 9.9999999991773336e-07 0 0 0
378 0 1 5.1135010000000003 148.0357854467006 9.9999999991773336e-07 0 0 0
379 0 1 4.3830010000000001 149.30104856162967 9.9999999991773336e-07 0 0 0
380 0 1 5.1135010000000003 150.56631167655874 9.9999999991773336e-07 0 0 0
381 0 1 4.3830010000000001 151.83157479148778 9.9999999991773336e-07 0 0 0
382 0 1 5.1135010000000003 153.09683790641685 9.9999999991773336e-07 0 0 0
383 0 1 4.3830010000000001 154.36210102134592 9.9999999991773336e-07 0 0 0
384 0 1 5.1135010000000003 155.62736413627499 9.9999999991773336e-07 0 0 0
385 0 1 4.3830010000000001 156.89262725120406 9.9999999991773336e-07 0 0 0
386 0 1 5.1135010000000003 158.15789036613313 9.9999999991773336e-07 0 0 0
387 0 1 4.3830010000000001 159.42315348106217 9.9999999991773336e-07 0 0 0
388 0 1 5.1135010000000003 160.68841659599124 9.9999999991773336e-07 0 0 0
389 0 1 4.3830010000000001 161.95367971092031 9.9999999991773336e-07 0 0 0
390 0 1 5.1135010000000003 163.21894282584938 9.9999999991773336e-07 0 0 0
391 0 1 7.3050009999999999 9.9999999999999995e-07 9.9999999991773336e-07 0 0 0
392 0 1 6.5745010000000006 1.2652641149290651 9.9999999991773336e-07 0 0 0
393 0 1 7.3050009999999999 2.5305272298581301 9.9999999991773336e-07 0 0 0
394 0 1 6.5745010000000006 3.795790344787195 9.9999999991773336e-07 0 0 0
395 0 1 7.3050009999999999 5.06105345971626 9.9999999991773336e-07 0 0 0