./lammps_sheet (written by ASE) 

100 	 atoms 
1  atom types
0.0      23.879999999999999  xlo xhi
0.0      11.067804660367125  ylo yhi
0.0                       4  zlo zhi


Atoms 

     1   1                       2  9.9999999999999998e-13                       2
     2   1                    2.71      1.2297560733749029                       2
     3   1                       2      2.4595121467488057                       2
     4   1                    2.71      3.6892682201227087                       2
     5   1                       2      4.9190242934966113                       2
     6   1                    2.71      6.1487803668705139                       2
     7   1                       2      7.3785364402444173                       2
     8   1                    2.71      8.6082925136183199                       2
     9   1                       2      9.8380485869922225                       2
    10   1                    2.71      11.067804660366125                       2
    11   1      4.8399999999999999  9.9999999999999998e-13                       2
    12   1      4.1299999999999999      1.2297560733749029                       2
    13   1      4.8399999999999999      2.4595121467488057                       2
    14   1      4.1299999999999999      3.6892682201227087                       2
    15   1      4.8399999999999999      4.9190242934966113                       2
    16   1      4.1299999999999999      6.1487803668705139                       2
    17   1      4.8399999999999999      7.3785364402444165                       2
    18   1      4.1299999999999999      8.6082925136183199                       2
    19   1      4.8399999999999999      9.8380485869922225                       2
    20   1      4.1299999999999999      11.067804660366125                       2
    21   1      6.2599999999999998  9.9999999999999998e-13                       2
    22   1      6.9699999999999998      1.2297560733749029                       2
    23   1      6.2599999999999998      2.4595121467488057                       2
    24   1      6.9699999999999998      3.6892682201227087                       2
    25   1      6.2599999999999998      4.9190242934966113                       2
    26   1      6.9699999999999998      6.1487803668705139                       2
    27   1      6.2599999999999998      7.3785364402444173                       2
    28   1      6.9699999999999998      8.6082925136183199                       2
    29   1      6.2599999999999998      9.8380485869922225                       2
    30   1      6.9699999999999998      11.067804660366125                       2
    31   1      9.0999999999999996  9.9999999999999998e-13                       2
    32   1      8.3900000000000006      1.2297560733749029                       2
    33   1      9.0999999999999996      2.4595121467488057                       2
    34   1      8.3900000000000006      3.6892682201227087                       2
    35   1      9.0999999999999996      4.9190242934966113                       2
    36   1      8.3900000000000006      6.1487803668705139                       2
    37   1      9.0999999999999996      7.3785364402444165                       2
    38   1      8.3900000000000006      8.6082925136183199                       2
    39   1      9.0999999999999996      9.8380485869922225                       2
    40   1      8.3900000000000006      11.067804660366125                       2
    41   1                   10.52  9.9999999999999998e-13                       2
    42   1                   11.23      1.2297560733749029                       2
    43   1                   10.52      2.4595121467488057                       2
    44   1                   11.23      3.6892682201227087                       2
    45   1                   10.52      4.9190242934966113                       2
    46   1                   11.23      6.1487803668705139                       2
    47   1                   10.52      7.3785364402444173                       2
    48   1                   11.23      8.6082925136183199                       2
    49   1                   10.52      9.8380485869922225                       2
    50   1                   11.23      11.067804660366125                       2
    51   1      13.359999999999999  9.9999999999999998e-13                       2
    52   1      12.649999999999999      1.2297560733749029                       2
    53   1      13.359999999999999      2.4595121467488057                       2
    54   1      12.649999999999999      3.6892682201227087                       2
    55   1      13.359999999999999      4.9190242934966113                       2
    56   1      12.649999999999999      6.1487803668705139                       2
    57   1      13.359999999999999      7.3785364402444165                       2
    58   1      12.649999999999999      8.6082925136183199                       2
    59   1      13.359999999999999      9.8380485869922225                       2
    60   1      12.649999999999999      11.067804660366125                       2
    61   1      14.779999999999999  9.9999999999999998e-13                       2
    62   1      15.489999999999998      1.2297560733749029                       2
    63   1      14.779999999999999      2.4595121467488057                       2
    64   1      15.489999999999998      3.6892682201227087                       2
    65   1      14.779999999999999      4.9190242934966113                       2
    66   1      15.489999999999998      6.1487803668705139                       2
    67   1      14.779999999999999      7.3785364402444173                       2
    68   1      15.489999999999998      8.6082925136183199                       2
    69   1      14.779999999999999      9.8380485869922225                       2
    70   1      15.489999999999998      11.067804660366125                       2
    71   1      17.620000000000001  9.9999999999999998e-13                       2
    72   1                   16.91      1.2297560733749029                       2
    73   1      17.620000000000001      2.4595121467488057                       2
    74   1                   16.91      3.6892682201227087                       2
    75   1      17.620000000000001      4.9190242934966113                       2
    76   1                   16.91      6.1487803668705139                       2
    77   1      17.620000000000001      7.3785364402444165                       2
    78   1                   16.91      8.6082925136183199                       2
    79   1      17.620000000000001      9.8380485869922225                       2
    80   1                   16.91      11.067804660366125                       2
    81   1      19.039999999999999  9.9999999999999998e-13                       2
    82   1                   19.75      1.2297560733749029                       2
    83   1      19.039999999999999      2.4595121467488057                       2
    84   1                   19.75      3.6892682201227087                       2
    85   1      19.039999999999999      4.9190242934966113                       2
    86   1                   19.75      6.1487803668705139                       2
    87   1      19.039999999999999      7.3785364402444173                       2
    88   1                   19.75      8.6082925136183199                       2
    89   1      19.039999999999999      9.8380485869922225                       2
    90   1                   19.75      11.067804660366125                       2
    91   1      21.879999999999999  9.9999999999999998e-13                       2
    92   1      21.169999999999998      1.2297560733749029                       2
    93   1      21.879999999999999      2.4595121467488057                       2
    94   1      21.169999999999998      3.6892682201227087                       2
    95   1      21.879999999999999      4.9190242934966113                       2
    96   1      21.169999999999998      6.1487803668705139                       2
    97   1      21.879999999999999      7.3785364402444165                       2
    98   1      21.169999999999998      8.6082925136183199                       2
    99   1      21.879999999999999      9.8380485869922225                       2
   100   1      21.169999999999998      11.067804660366125                       2
