./lammps_sheet (written by ASE) 

512 	 atoms 
1  atom types
0.0      40.122438274590991  xlo xhi
0.0      34.079999999999998  ylo yhi
0.0                       2  zlo zhi


Atoms 

     1   1                       1                       0                       1
     2   1      2.2297560733739061     0.70999999999999996                       1
     3   1      2.2297560733739061      2.1299999999999999                       1
     4   1                       1      2.8399999999999999                       1
     5   1                       1      4.2599999999999998                       1
     6   1      2.2297560733739061      4.9699999999999998                       1
     7   1      2.2297560733739061      6.3899999999999997                       1
     8   1                       1      7.0999999999999996                       1
     9   1                       1      8.5199999999999996                       1
    10   1      2.2297560733739061      9.2300000000000004                       1
    11   1      2.2297560733739061      10.649999999999999                       1
    12   1                       1      11.359999999999999                       1
    13   1                       1      12.779999999999999                       1
    14   1      2.2297560733739061      13.489999999999998                       1
    15   1      2.2297560733739061                   14.91                       1
    16   1                       1      15.619999999999999                       1
    17   1                       1      17.039999999999999                       1
    18   1      2.2297560733739061                   17.75                       1
    19   1      2.2297560733739061      19.169999999999998                       1
    20   1                       1      19.879999999999999                       1
    21   1                       1      21.299999999999997                       1
    22   1      2.2297560733739061      22.009999999999998                       1
    23   1      2.2297560733739061      23.429999999999996                       1
    24   1                       1      24.139999999999997                       1
    25   1                       1      25.559999999999999                       1
    26   1      2.2297560733739061                   26.27                       1
    27   1      2.2297560733739061      27.689999999999998                       1
    28   1                       1      28.399999999999999                       1
    29   1                       1                   29.82                       1
    30   1      2.2297560733739061      30.530000000000001                       1
    31   1      2.2297560733739061      31.949999999999999                       1
    32   1                       1      32.659999999999997                       1
    33   1      3.4595121467478052                       0                       1
    34   1      4.6892682201217113     0.70999999999999996                       1
    35   1      4.6892682201217113      2.1299999999999999                       1
    36   1      3.4595121467478052      2.8399999999999999                       1
    37   1      3.4595121467478052      4.2599999999999998                       1
    38   1      4.6892682201217113      4.9699999999999998                       1
    39   1      4.6892682201217113      6.3899999999999997                       1
    40   1      3.4595121467478052      7.0999999999999996                       1
    41   1      3.4595121467478052      8.5199999999999996                       1
    42   1      4.6892682201217113      9.2300000000000004                       1
    43   1      4.6892682201217113      10.649999999999999                       1
    44   1      3.4595121467478052      11.359999999999999                       1
    45   1      3.4595121467478052      12.779999999999999                       1
    46   1      4.6892682201217113      13.489999999999998                       1
    47   1      4.6892682201217113                   14.91                       1
    48   1      3.4595121467478052      15.619999999999999                       1
    49   1      3.4595121467478052      17.039999999999999                       1
    50   1      4.6892682201217113                   17.75                       1
    51   1      4.6892682201217113      19.169999999999998                       1
    52   1      3.4595121467478052      19.879999999999999                       1
    53   1      3.4595121467478052      21.299999999999997                       1
    54   1      4.6892682201217113      22.009999999999998                       1
    55   1      4.6892682201217113      23.429999999999996                       1
    56   1      3.4595121467478052      24.139999999999997                       1
    57   1      3.4595121467478052      25.559999999999999                       1
    58   1      4.6892682201217113                   26.27                       1
    59   1      4.6892682201217113      27.689999999999998                       1
    60   1      3.4595121467478052      28.399999999999999                       1
    61   1      3.4595121467478052                   29.82                       1
    62   1      4.6892682201217113      30.530000000000001                       1
    63   1      4.6892682201217113      31.949999999999999                       1
    64   1      3.4595121467478052      32.659999999999997                       1
    65   1      5.9190242934956103                       0                       1
    66   1      7.1487803668695129     0.70999999999999996                       1
    67   1      7.1487803668695129      2.1299999999999999                       1
    68   1      5.9190242934956103      2.8399999999999999                       1
    69   1      5.9190242934956103      4.2599999999999998                       1
    70   1      7.1487803668695129      4.9699999999999998                       1
    71   1      7.1487803668695129      6.3899999999999997                       1
    72   1      5.9190242934956103      7.0999999999999996                       1
    73   1      5.9190242934956103      8.5199999999999996                       1
    74   1      7.1487803668695129      9.2300000000000004                       1
    75   1      7.1487803668695129      10.649999999999999                       1
    76   1      5.9190242934956103      11.359999999999999                       1
    77   1      5.9190242934956103      12.779999999999999                       1
    78   1      7.1487803668695129      13.489999999999998                       1
    79   1      7.1487803668695129                   14.91                       1
    80   1      5.9190242934956103      15.619999999999999                       1
    81   1      5.9190242934956103      17.039999999999999                       1
    82   1      7.1487803668695129                   17.75                       1
    83   1      7.1487803668695129      19.169999999999998                       1
    84   1      5.9190242934956103      19.879999999999999                       1
    85   1      5.9190242934956103      21.299999999999997                       1
    86   1      7.1487803668695129      22.009999999999998                       1
    87   1      7.1487803668695129      23.429999999999996                       1
    88   1      5.9190242934956103      24.139999999999997                       1
    89   1      5.9190242934956103      25.559999999999999                       1
    90   1      7.1487803668695129                   26.27                       1
    91   1      7.1487803668695129      27.689999999999998                       1
    92   1      5.9190242934956103      28.399999999999999                       1
    93   1      5.9190242934956103                   29.82                       1
    94   1      7.1487803668695129      30.530000000000001                       1
    95   1      7.1487803668695129      31.949999999999999                       1
    96   1      5.9190242934956103      32.659999999999997                       1
    97   1      8.3785364402434155                       0                       1
    98   1      9.6082925136173181     0.70999999999999996                       1
    99   1      9.6082925136173181      2.1299999999999999                       1
   100   1      8.3785364402434155      2.8399999999999999                       1
   101   1      8.3785364402434155      4.2599999999999998                       1
   102   1      9.6082925136173181      4.9699999999999998                       1
   103   1      9.6082925136173181      6.3899999999999997                       1
   104   1      8.3785364402434155      7.0999999999999996                       1
   105   1      8.3785364402434155      8.5199999999999996                       1
   106   1      9.6082925136173181      9.2300000000000004                       1
   107   1      9.6082925136173181      10.649999999999999                       1
   108   1      8.3785364402434155      11.359999999999999                       1
   109   1      8.3785364402434155      12.779999999999999                       1
   110   1      9.6082925136173181      13.489999999999998                       1
   111   1      9.6082925136173181                   14.91                       1
   112   1      8.3785364402434155      15.619999999999999                       1
   113   1      8.3785364402434155      17.039999999999999                       1
   114   1      9.6082925136173181                   17.75                       1
   115   1      9.6082925136173181      19.169999999999998                       1
   116   1      8.3785364402434155      19.879999999999999                       1
   117   1      8.3785364402434155      21.299999999999997                       1
   118   1      9.6082925136173181      22.009999999999998                       1
   119   1      9.6082925136173181      23.429999999999996                       1
   120   1      8.3785364402434155      24.139999999999997                       1
   121   1      8.3785364402434155      25.559999999999999                       1
   122   1      9.6082925136173181                   26.27                       1
   123   1      9.6082925136173181      27.689999999999998                       1
   124   1      8.3785364402434155      28.399999999999999                       1
   125   1      8.3785364402434155                   29.82                       1
   126   1      9.6082925136173181      30.530000000000001                       1
   127   1      9.6082925136173181      31.949999999999999                       1
   128   1      8.3785364402434155      32.659999999999997                       1
   129   1      10.838048586991224                       0                       1
   130   1      12.067804660365127     0.70999999999999996                       1
   131   1      12.067804660365127      2.1299999999999999                       1
   132   1      10.838048586991224      2.8399999999999999                       1
   133   1      10.838048586991224      4.2599999999999998                       1
   134   1      12.067804660365127      4.9699999999999998                       1
   135   1      12.067804660365127      6.3899999999999997                       1
   136   1      10.838048586991224      7.0999999999999996                       1
   137   1      10.838048586991224      8.5199999999999996                       1
   138   1      12.067804660365127      9.2300000000000004                       1
   139   1      12.067804660365127      10.649999999999999                       1
   140   1      10.838048586991224      11.359999999999999                       1
   141   1      10.838048586991224      12.779999999999999                       1
   142   1      12.067804660365127      13.489999999999998                       1
   143   1      12.067804660365127                   14.91                       1
   144   1      10.838048586991224      15.619999999999999                       1
   145   1      10.838048586991224      17.039999999999999                       1
   146   1      12.067804660365127                   17.75                       1
   147   1      12.067804660365127      19.169999999999998                       1
   148   1      10.838048586991224      19.879999999999999                       1
   149   1      10.838048586991224      21.299999999999997                       1
   150   1      12.067804660365127      22.009999999999998                       1
   151   1      12.067804660365127      23.429999999999996                       1
   152   1      10.838048586991224      24.139999999999997                       1
   153   1      10.838048586991224      25.559999999999999                       1
   154   1      12.067804660365127                   26.27                       1
   155   1      12.067804660365127      27.689999999999998                       1
   156   1      10.838048586991224      28.399999999999999                       1
   157   1      10.838048586991224                   29.82                       1
   158   1      12.067804660365127      30.530000000000001                       1
   159   1      12.067804660365127      31.949999999999999                       1
   160   1      10.838048586991224      32.659999999999997                       1
   161   1      13.297560733739029                       0                       1
   162   1      14.527316807112932     0.70999999999999996                       1
   163   1      14.527316807112932      2.1299999999999999                       1
   164   1      13.297560733739029      2.8399999999999999                       1
   165   1      13.297560733739029      4.2599999999999998                       1
   166   1      14.527316807112932      4.9699999999999998                       1
   167   1      14.527316807112932      6.3899999999999997                       1
   168   1      13.297560733739029      7.0999999999999996                       1
   169   1      13.297560733739029      8.5199999999999996                       1
   170   1      14.527316807112932      9.2300000000000004                       1
   171   1      14.527316807112932      10.649999999999999                       1
   172   1      13.297560733739029      11.359999999999999                       1
   173   1      13.297560733739029      12.779999999999999                       1
   174   1      14.527316807112932      13.489999999999998                       1
   175   1      14.527316807112932                   14.91                       1
   176   1      13.297560733739029      15.619999999999999                       1
   177   1      13.297560733739029      17.039999999999999                       1
   178   1      14.527316807112932                   17.75                       1
   179   1      14.527316807112932      19.169999999999998                       1
   180   1      13.297560733739029      19.879999999999999                       1
   181   1      13.297560733739029      21.299999999999997                       1
   182   1      14.527316807112932      22.009999999999998                       1
   183   1      14.527316807112932      23.429999999999996                       1
   184   1      13.297560733739029      24.139999999999997                       1
   185   1      13.297560733739029      25.559999999999999                       1
   186   1      14.527316807112932                   26.27                       1
   187   1      14.527316807112932      27.689999999999998                       1
   188   1      13.297560733739029      28.399999999999999                       1
   189   1      13.297560733739029                   29.82                       1
   190   1      14.527316807112932      30.530000000000001                       1
   191   1      14.527316807112932      31.949999999999999                       1
   192   1      13.297560733739029      32.659999999999997                       1
   193   1      15.757072880486835                       0                       1
   194   1      16.986828953860737     0.70999999999999996                       1
   195   1      16.986828953860737      2.1299999999999999                       1
   196   1      15.757072880486835      2.8399999999999999                       1
   197   1      15.757072880486835      4.2599999999999998                       1
   198   1      16.986828953860737      4.9699999999999998                       1
   199   1      16.986828953860737      6.3899999999999997                       1
   200   1      15.757072880486835      7.0999999999999996                       1
   201   1      15.757072880486835      8.5199999999999996                       1
   202   1      16.986828953860737      9.2300000000000004                       1
   203   1      16.986828953860737      10.649999999999999                       1
   204   1      15.757072880486835      11.359999999999999                       1
   205   1      15.757072880486835      12.779999999999999                       1
   206   1      16.986828953860737      13.489999999999998                       1
   207   1      16.986828953860737                   14.91                       1
   208   1      15.757072880486835      15.619999999999999                       1
   209   1      15.757072880486835      17.039999999999999                       1
   210   1      16.986828953860737                   17.75                       1
   211   1      16.986828953860737      19.169999999999998                       1
   212   1      15.757072880486835      19.879999999999999                       1
   213   1      15.757072880486835      21.299999999999997                       1
   214   1      16.986828953860737      22.009999999999998                       1
   215   1      16.986828953860737      23.429999999999996                       1
   216   1      15.757072880486835      24.139999999999997                       1
   217   1      15.757072880486835      25.559999999999999                       1
   218   1      16.986828953860737                   26.27                       1
   219   1      16.986828953860737      27.689999999999998                       1
   220   1      15.757072880486835      28.399999999999999                       1
   221   1      15.757072880486835                   29.82                       1
   222   1      16.986828953860737      30.530000000000001                       1
   223   1      16.986828953860737      31.949999999999999                       1
   224   1      15.757072880486835      32.659999999999997                       1
   225   1       18.21658502723464                       0                       1
   226   1      19.446341100608542     0.70999999999999996                       1
   227   1      19.446341100608542      2.1299999999999999                       1
   228   1       18.21658502723464      2.8399999999999999                       1
   229   1       18.21658502723464      4.2599999999999998                       1
   230   1      19.446341100608542      4.9699999999999998                       1
   231   1      19.446341100608542      6.3899999999999997                       1
   232   1       18.21658502723464      7.0999999999999996                       1
   233   1       18.21658502723464      8.5199999999999996                       1
   234   1      19.446341100608542      9.2300000000000004                       1
   235   1      19.446341100608542      10.649999999999999                       1
   236   1       18.21658502723464      11.359999999999999                       1
   237   1       18.21658502723464      12.779999999999999                       1
   238   1      19.446341100608542      13.489999999999998                       1
   239   1      19.446341100608542                   14.91                       1
   240   1       18.21658502723464      15.619999999999999                       1
   241   1       18.21658502723464      17.039999999999999                       1
   242   1      19.446341100608542                   17.75                       1
   243   1      19.446341100608542      19.169999999999998                       1
   244   1       18.21658502723464      19.879999999999999                       1
   245   1       18.21658502723464      21.299999999999997                       1
   246   1      19.446341100608542      22.009999999999998                       1
   247   1      19.446341100608542      23.429999999999996                       1
   248   1       18.21658502723464      24.139999999999997                       1
   249   1       18.21658502723464      25.559999999999999                       1
   250   1      19.446341100608542                   26.27                       1
   251   1      19.446341100608542      27.689999999999998                       1
   252   1       18.21658502723464      28.399999999999999                       1
   253   1       18.21658502723464                   29.82                       1
   254   1      19.446341100608542      30.530000000000001                       1
   255   1      19.446341100608542      31.949999999999999                       1
   256   1       18.21658502723464      32.659999999999997                       1
   257   1      20.676097173982445                       0                       1
   258   1      21.905853247356347     0.70999999999999996                       1
   259   1      21.905853247356347      2.1299999999999999                       1
   260   1      20.676097173982445      2.8399999999999999                       1
   261   1      20.676097173982445      4.2599999999999998                       1
   262   1      21.905853247356347      4.9699999999999998                       1
   263   1      21.905853247356347      6.3899999999999997                       1
   264   1      20.676097173982445      7.0999999999999996                       1
   265   1      20.676097173982445      8.5199999999999996                       1
   266   1      21.905853247356347      9.2300000000000004                       1
   267   1      21.905853247356347      10.649999999999999                       1
   268   1      20.676097173982445      11.359999999999999                       1
   269   1      20.676097173982445      12.779999999999999                       1
   270   1      21.905853247356347      13.489999999999998                       1
   271   1      21.905853247356347                   14.91                       1
   272   1      20.676097173982445      15.619999999999999                       1
   273   1      20.676097173982445      17.039999999999999                       1
   274   1      21.905853247356347                   17.75                       1
   275   1      21.905853247356347      19.169999999999998                       1
   276   1      20.676097173982445      19.879999999999999                       1
   277   1      20.676097173982445      21.299999999999997                       1
   278   1      21.905853247356347      22.009999999999998                       1
   279   1      21.905853247356347      23.429999999999996                       1
   280   1      20.676097173982445      24.139999999999997                       1
   281   1      20.676097173982445      25.559999999999999                       1
   282   1      21.905853247356347                   26.27                       1
   283   1      21.905853247356347      27.689999999999998                       1
   284   1      20.676097173982445      28.399999999999999                       1
   285   1      20.676097173982445                   29.82                       1
   286   1      21.905853247356347      30.530000000000001                       1
   287   1      21.905853247356347      31.949999999999999                       1
   288   1      20.676097173982445      32.659999999999997                       1
   289   1       23.13560932073025                       0                       1
   290   1      24.365365394104153     0.70999999999999996                       1
   291   1      24.365365394104153      2.1299999999999999                       1
   292   1       23.13560932073025      2.8399999999999999                       1
   293   1       23.13560932073025      4.2599999999999998                       1
   294   1      24.365365394104153      4.9699999999999998                       1
   295   1      24.365365394104153      6.3899999999999997                       1
   296   1       23.13560932073025      7.0999999999999996                       1
   297   1       23.13560932073025      8.5199999999999996                       1
   298   1      24.365365394104153      9.2300000000000004                       1
   299   1      24.365365394104153      10.649999999999999                       1
   300   1       23.13560932073025      11.359999999999999                       1
   301   1       23.13560932073025      12.779999999999999                       1
   302   1      24.365365394104153      13.489999999999998                       1
   303   1      24.365365394104153                   14.91                       1
   304   1       23.13560932073025      15.619999999999999                       1
   305   1       23.13560932073025      17.039999999999999                       1
   306   1      24.365365394104153                   17.75                       1
   307   1      24.365365394104153      19.169999999999998                       1
   308   1       23.13560932073025      19.879999999999999                       1
   309   1       23.13560932073025      21.299999999999997                       1
   310   1      24.365365394104153      22.009999999999998                       1
   311   1      24.365365394104153      23.429999999999996                       1
   312   1       23.13560932073025      24.139999999999997                       1
   313   1       23.13560932073025      25.559999999999999                       1
   314   1      24.365365394104153                   26.27                       1
   315   1      24.365365394104153      27.689999999999998                       1
   316   1       23.13560932073025      28.399999999999999                       1
   317   1       23.13560932073025                   29.82                       1
   318   1      24.365365394104153      30.530000000000001                       1
   319   1      24.365365394104153      31.949999999999999                       1
   320   1       23.13560932073025      32.659999999999997                       1
   321   1      25.595121467478059                       0                       1
   322   1      26.824877540851958     0.70999999999999996                       1
   323   1      26.824877540851958      2.1299999999999999                       1
   324   1      25.595121467478059      2.8399999999999999                       1
   325   1      25.595121467478059      4.2599999999999998                       1
   326   1      26.824877540851958      4.9699999999999998                       1
   327   1      26.824877540851958      6.3899999999999997                       1
   328   1      25.595121467478059      7.0999999999999996                       1
   329   1      25.595121467478059      8.5199999999999996                       1
   330   1      26.824877540851958      9.2300000000000004                       1
   331   1      26.824877540851958      10.649999999999999                       1
   332   1      25.595121467478059      11.359999999999999                       1
   333   1      25.595121467478059      12.779999999999999                       1
   334   1      26.824877540851958      13.489999999999998                       1
   335   1      26.824877540851958                   14.91                       1
   336   1      25.595121467478059      15.619999999999999                       1
   337   1      25.595121467478059      17.039999999999999                       1
   338   1      26.824877540851958                   17.75                       1
   339   1      26.824877540851958      19.169999999999998                       1
   340   1      25.595121467478059      19.879999999999999                       1
   341   1      25.595121467478059      21.299999999999997                       1
   342   1      26.824877540851958      22.009999999999998                       1
   343   1      26.824877540851958      23.429999999999996                       1
   344   1      25.595121467478059      24.139999999999997                       1
   345   1      25.595121467478059      25.559999999999999                       1
   346   1      26.824877540851958                   26.27                       1
   347   1      26.824877540851958      27.689999999999998                       1
   348   1      25.595121467478059      28.399999999999999                       1
   349   1      25.595121467478059                   29.82                       1
   350   1      26.824877540851958      30.530000000000001                       1
   351   1      26.824877540851958      31.949999999999999                       1
   352   1      25.595121467478059      32.659999999999997                       1
   353   1      28.054633614225864                       0                       1
   354   1      29.284389687599763     0.70999999999999996                       1
   355   1      29.284389687599763      2.1299999999999999                       1
   356   1      28.054633614225864      2.8399999999999999                       1
   357   1      28.054633614225864      4.2599999999999998                       1
   358   1      29.284389687599763      4.9699999999999998                       1
   359   1      29.284389687599763      6.3899999999999997                       1