./lammps_sheet (written by ASE) 

24 	 atoms 
1  atom types
0.0                   13.23  xlo xhi
0.0      12.297560733739028  ylo yhi
0.0                       4  zlo zhi


Atoms 

     1   1                       2                       0                       2
     2   1                    2.71      1.2297560733739028                       2
     3   1                       2      2.4595121467478056                       2
     4   1                    2.71      3.6892682201217086                       2
     5   1                       2      4.9190242934956112                       2
     6   1                    2.71      6.1487803668695138                       2
     7   1                       2      7.3785364402434173                       2
     8   1                    2.71      8.6082925136173198                       2
     9   1                       2      9.8380485869912224                       2
    10   1                    2.71      11.067804660365125                       2
    11   1      4.1299999999999999      3.6892682201217086                       2
    12   1      4.8399999999999999      4.9190242934956112                       2
    13   1      4.1299999999999999      6.1487803668695138                       2
    14   1      4.8399999999999999      7.3785364402434164                       2
    15   1      4.1299999999999999      8.6082925136173198                       2
    16   1      4.8399999999999999      9.8380485869912224                       2
    17   1      4.1299999999999999      11.067804660365125                       2
    18   1      9.0999999999999996                       0                       2
    19   1                   10.52                       0                       2
    20   1                   11.23      1.2297560733739028                       2
    21   1                   10.52      2.4595121467478056                       2
    22   1                   11.23      3.6892682201217086                       2
    23   1                   10.52      4.9190242934956112                       2
    24   1                   11.23      6.1487803668695138                       2
