./lammps_diamond_block (written by ASE) 

432 	 atoms 
1  atom types
0.0      32.129999999999995  xlo xhi
0.0      21.419999999999998  ylo yhi
0.0      14.279999999999999  zlo zhi


Atoms 

     1   1                       0                       0      10.709999999999999
     2   1                       0      1.7849999999999999      12.494999999999999
     3   1      1.7849999999999999      1.7849999999999999      10.709999999999999
     4   1      1.7849999999999999                       0      12.494999999999999
     5   1      2.6774999999999998     0.89249999999999996      13.387499999999999
     6   1     0.89249999999999996     0.89249999999999996      11.602499999999999
     7   1     0.89249999999999996      2.6774999999999998      13.387499999999999
     8   1      2.6774999999999998      2.6774999999999998      11.602499999999999
     9   1                       0      3.5699999999999998      10.709999999999999
    10   1                       0      5.3549999999999995      12.494999999999999
    11   1      1.7849999999999999      5.3549999999999995      10.709999999999999
    12   1      1.7849999999999999      3.5699999999999998      12.494999999999999
    13   1      2.6774999999999998      4.4624999999999995      13.387499999999999
    14   1     0.89249999999999996      4.4624999999999995      11.602499999999999
    15   1     0.89249999999999996      6.2474999999999996      13.387499999999999
    16   1      2.6774999999999998      6.2474999999999996      11.602499999999999
    17   1                       0      7.1399999999999997      10.709999999999999
    18   1                       0      8.9249999999999989      12.494999999999999
    19   1      1.7849999999999999      8.9249999999999989      10.709999999999999
    20   1      1.7849999999999999      7.1399999999999997      12.494999999999999
    21   1      2.6774999999999998      8.0324999999999989      13.387499999999999
    22   1     0.89249999999999996      8.0324999999999989      11.602499999999999
    23   1     0.89249999999999996       9.817499999999999      13.387499999999999
    24   1      2.6774999999999998       9.817499999999999      11.602499999999999
    25   1                       0      10.709999999999999      10.709999999999999
    26   1                       0      12.494999999999999      12.494999999999999
    27   1      1.7849999999999999      12.494999999999999      10.709999999999999
    28   1      1.7849999999999999      10.709999999999999      12.494999999999999
    29   1      2.6774999999999998      11.602499999999999      13.387499999999999
    30   1     0.89249999999999996      11.602499999999999      11.602499999999999
    31   1     0.89249999999999996      13.387499999999999      13.387499999999999
    32   1      2.6774999999999998      13.387499999999999      11.602499999999999
    33   1                       0      14.279999999999999      10.709999999999999
    34   1                       0      16.064999999999998      12.494999999999999
    35   1      1.7849999999999999      16.064999999999998      10.709999999999999
    36   1      1.7849999999999999      14.279999999999999      12.494999999999999
    37   1      2.6774999999999998      15.172499999999999      13.387499999999999
    38   1     0.89249999999999996      15.172499999999999      11.602499999999999
    39   1     0.89249999999999996                 16.9575      13.387499999999999
    40   1      2.6774999999999998                 16.9575      11.602499999999999
    41   1                       0      17.849999999999998      10.709999999999999
    42   1                       0      19.634999999999998      12.494999999999999
    43   1      1.7849999999999999      19.634999999999998      10.709999999999999
    44   1      1.7849999999999999      17.849999999999998      12.494999999999999
    45   1      2.6774999999999998      18.742499999999996      13.387499999999999
    46   1     0.89249999999999996      18.742499999999996      11.602499999999999
    47   1     0.89249999999999996      20.527499999999996      13.387499999999999
    48   1      2.6774999999999998      20.527499999999996      11.602499999999999
    49   1      3.5699999999999998                       0      10.709999999999999
    50   1      3.5699999999999998      1.7849999999999999      12.494999999999999
    51   1      5.3549999999999995      1.7849999999999999      10.709999999999999
    52   1      5.3549999999999995                       0      12.494999999999999
    53   1      6.2474999999999996     0.89249999999999996      13.387499999999999
    54   1      4.4624999999999995     0.89249999999999996      11.602499999999999
    55   1      4.4624999999999995      2.6774999999999998      13.387499999999999
    56   1      6.2474999999999996      2.6774999999999998      11.602499999999999
    57   1      3.5699999999999998      3.5699999999999998      10.709999999999999
    58   1      3.5699999999999998      5.3549999999999995      12.494999999999999
    59   1      5.3549999999999995      5.3549999999999995      10.709999999999999
    60   1      5.3549999999999995      3.5699999999999998      12.494999999999999
    61   1      6.2474999999999996      4.4624999999999995      13.387499999999999
    62   1      4.4624999999999995      4.4624999999999995      11.602499999999999
    63   1      4.4624999999999995      6.2474999999999996      13.387499999999999
    64   1      6.2474999999999996      6.2474999999999996      11.602499999999999
    65   1      3.5699999999999998      7.1399999999999997      10.709999999999999
    66   1      3.5699999999999998      8.9249999999999989      12.494999999999999
    67   1      5.3549999999999995      8.9249999999999989      10.709999999999999
    68   1      5.3549999999999995      7.1399999999999997      12.494999999999999
    69   1      6.2474999999999996      8.0324999999999989      13.387499999999999
    70   1      4.4624999999999995      8.0324999999999989      11.602499999999999
    71   1      4.4624999999999995       9.817499999999999      13.387499999999999
    72   1      6.2474999999999996       9.817499999999999      11.602499999999999
    73   1      3.5699999999999998      10.709999999999999      10.709999999999999
    74   1      3.5699999999999998      12.494999999999999      12.494999999999999
    75   1      5.3549999999999995      12.494999999999999      10.709999999999999
    76   1      5.3549999999999995      10.709999999999999      12.494999999999999
    77   1      6.2474999999999996      11.602499999999999      13.387499999999999
    78   1      4.4624999999999995      11.602499999999999      11.602499999999999
    79   1      4.4624999999999995      13.387499999999999      13.387499999999999
    80   1      6.2474999999999996      13.387499999999999      11.602499999999999
    81   1      3.5699999999999998      14.279999999999999      10.709999999999999
    82   1      3.5699999999999998      16.064999999999998      12.494999999999999
    83   1      5.3549999999999995      16.064999999999998      10.709999999999999
    84   1      5.3549999999999995      14.279999999999999      12.494999999999999
    85   1      6.2474999999999996      15.172499999999999      13.387499999999999
    86   1      4.4624999999999995      15.172499999999999      11.602499999999999
    87   1      4.4624999999999995                 16.9575      13.387499999999999
    88   1      6.2474999999999996                 16.9575      11.602499999999999
    89   1      3.5699999999999998      17.849999999999998      10.709999999999999
    90   1      3.5699999999999998      19.634999999999998      12.494999999999999
    91   1      5.3549999999999995      19.634999999999998      10.709999999999999
    92   1      5.3549999999999995      17.849999999999998      12.494999999999999
    93   1      6.2474999999999996      18.742499999999996      13.387499999999999
    94   1      4.4624999999999995      18.742499999999996      11.602499999999999
    95   1      4.4624999999999995      20.527499999999996      13.387499999999999
    96   1      6.2474999999999996      20.527499999999996      11.602499999999999
    97   1      7.1399999999999997                       0      10.709999999999999
    98   1      7.1399999999999997      1.7849999999999999      12.494999999999999
    99   1      8.9249999999999989      1.7849999999999999      10.709999999999999
   100   1      8.9249999999999989                       0      12.494999999999999
   101   1       9.817499999999999     0.89249999999999996      13.387499999999999
   102   1      8.0324999999999989     0.89249999999999996      11.602499999999999
   103   1      8.0324999999999989      2.6774999999999998      13.387499999999999
   104   1       9.817499999999999      2.6774999999999998      11.602499999999999
   105   1      7.1399999999999997      3.5699999999999998      10.709999999999999
   106   1      7.1399999999999997      5.3549999999999995      12.494999999999999
   107   1      8.9249999999999989      5.3549999999999995      10.709999999999999
   108   1      8.9249999999999989      3.5699999999999998      12.494999999999999
   109   1       9.817499999999999      4.4624999999999995      13.387499999999999
   110   1      8.0324999999999989      4.4624999999999995      11.602499999999999
   111   1      8.0324999999999989      6.2474999999999996      13.387499999999999
   112   1       9.817499999999999      6.2474999999999996      11.602499999999999
   113   1      7.1399999999999997      7.1399999999999997      10.709999999999999
   114   1      7.1399999999999997      8.9249999999999989      12.494999999999999
   115   1      8.9249999999999989      8.9249999999999989      10.709999999999999
   116   1      8.9249999999999989      7.1399999999999997      12.494999999999999
   117   1       9.817499999999999      8.0324999999999989      13.387499999999999
   118   1      8.0324999999999989      8.0324999999999989      11.602499999999999
   119   1      8.0324999999999989       9.817499999999999      13.387499999999999
   120   1       9.817499999999999       9.817499999999999      11.602499999999999
   121   1      7.1399999999999997      10.709999999999999      10.709999999999999
   122   1      7.1399999999999997      12.494999999999999      12.494999999999999
   123   1      8.9249999999999989      12.494999999999999      10.709999999999999
   124   1      8.9249999999999989      10.709999999999999      12.494999999999999
   125   1       9.817499999999999      11.602499999999999      13.387499999999999
   126   1      8.0324999999999989      11.602499999999999      11.602499999999999
   127   1      8.0324999999999989      13.387499999999999      13.387499999999999
   128   1       9.817499999999999      13.387499999999999      11.602499999999999
   129   1      7.1399999999999997      14.279999999999999      10.709999999999999
   130   1      7.1399999999999997      16.064999999999998      12.494999999999999
   131   1      8.9249999999999989      16.064999999999998      10.709999999999999
   132   1      8.9249999999999989      14.279999999999999      12.494999999999999
   133   1       9.817499999999999      15.172499999999999      13.387499999999999
   134   1      8.0324999999999989      15.172499999999999      11.602499999999999
   135   1      8.0324999999999989                 16.9575      13.387499999999999
   136   1       9.817499999999999                 16.9575      11.602499999999999
   137   1      7.1399999999999997      17.849999999999998      10.709999999999999
   138   1      7.1399999999999997      19.634999999999998      12.494999999999999
   139   1      8.9249999999999989      19.634999999999998      10.709999999999999
   140   1      8.9249999999999989      17.849999999999998      12.494999999999999
   141   1       9.817499999999999      18.742499999999996      13.387499999999999
   142   1      8.0324999999999989      18.742499999999996      11.602499999999999
   143   1      8.0324999999999989      20.527499999999996      13.387499999999999
   144   1       9.817499999999999      20.527499999999996      11.602499999999999
   145   1      10.709999999999999                       0      10.709999999999999
   146   1      10.709999999999999      1.7849999999999999      12.494999999999999
   147   1      12.494999999999999      1.7849999999999999      10.709999999999999
   148   1      12.494999999999999                       0      12.494999999999999
   149   1      13.387499999999999     0.89249999999999996      13.387499999999999
   150   1      11.602499999999999     0.89249999999999996      11.602499999999999
   151   1      11.602499999999999      2.6774999999999998      13.387499999999999
   152   1      13.387499999999999      2.6774999999999998      11.602499999999999
   153   1      10.709999999999999      3.5699999999999998      10.709999999999999
   154   1      10.709999999999999      5.3549999999999995      12.494999999999999
   155   1      12.494999999999999      5.3549999999999995      10.709999999999999
   156   1      12.494999999999999      3.5699999999999998      12.494999999999999
   157   1      13.387499999999999      4.4624999999999995      13.387499999999999
   158   1      11.602499999999999      4.4624999999999995      11.602499999999999
   159   1      11.602499999999999      6.2474999999999996      13.387499999999999
   160   1      13.387499999999999      6.2474999999999996      11.602499999999999
   161   1      10.709999999999999      7.1399999999999997      10.709999999999999
   162   1      10.709999999999999      8.9249999999999989      12.494999999999999
   163   1      12.494999999999999      8.9249999999999989      10.709999999999999
   164   1      12.494999999999999      7.1399999999999997      12.494999999999999
   165   1      13.387499999999999      8.0324999999999989      13.387499999999999
   166   1      11.602499999999999      8.0324999999999989      11.602499999999999
   167   1      11.602499999999999       9.817499999999999      13.387499999999999
   168   1      13.387499999999999       9.817499999999999      11.602499999999999
   169   1      10.709999999999999      10.709999999999999      10.709999999999999
   170   1      10.709999999999999      12.494999999999999      12.494999999999999
   171   1      12.494999999999999      12.494999999999999      10.709999999999999
   172   1      12.494999999999999      10.709999999999999      12.494999999999999
   173   1      13.387499999999999      11.602499999999999      13.387499999999999
   174   1      11.602499999999999      11.602499999999999      11.602499999999999
   175   1      11.602499999999999      13.387499999999999      13.387499999999999
   176   1      13.387499999999999      13.387499999999999      11.602499999999999
   177   1      10.709999999999999      14.279999999999999      10.709999999999999
   178   1      10.709999999999999      16.064999999999998      12.494999999999999
   179   1      12.494999999999999      16.064999999999998      10.709999999999999
   180   1      12.494999999999999      14.279999999999999      12.494999999999999
   181   1      13.387499999999999      15.172499999999999      13.387499999999999
   182   1      11.602499999999999      15.172499999999999      11.602499999999999
   183   1      11.602499999999999                 16.9575      13.387499999999999
   184   1      13.387499999999999                 16.9575      11.602499999999999
   185   1      10.709999999999999      17.849999999999998      10.709999999999999
   186   1      10.709999999999999      19.634999999999998      12.494999999999999
   187   1      12.494999999999999      19.634999999999998      10.709999999999999
   188   1      12.494999999999999      17.849999999999998      12.494999999999999
   189   1      13.387499999999999      18.742499999999996      13.387499999999999
   190   1      11.602499999999999      18.742499999999996      11.602499999999999
   191   1      11.602499999999999      20.527499999999996      13.387499999999999
   192   1      13.387499999999999      20.527499999999996      11.602499999999999
   193   1      14.279999999999999                       0      10.709999999999999
   194   1      14.279999999999999      1.7849999999999999      12.494999999999999
   195   1      16.064999999999998      1.7849999999999999      10.709999999999999
   196   1      16.064999999999998                       0      12.494999999999999
   197   1                 16.9575     0.89249999999999996      13.387499999999999
   198   1      15.172499999999999     0.89249999999999996      11.602499999999999
   199   1      15.172499999999999      2.6774999999999998      13.387499999999999
   200   1                 16.9575      2.6774999999999998      11.602499999999999
   201   1      14.279999999999999      3.5699999999999998      10.709999999999999
   202   1      14.279999999999999      5.3549999999999995      12.494999999999999
   203   1      16.064999999999998      5.3549999999999995      10.709999999999999
   204   1      16.064999999999998      3.5699999999999998      12.494999999999999
   205   1                 16.9575      4.4624999999999995      13.387499999999999
   206   1      15.172499999999999      4.4624999999999995      11.602499999999999
   207   1      15.172499999999999      6.2474999999999996      13.387499999999999
   208   1                 16.9575      6.2474999999999996      11.602499999999999
   209   1      14.279999999999999      7.1399999999999997      10.709999999999999
   210   1      14.279999999999999      8.9249999999999989      12.494999999999999
   211   1      16.064999999999998      8.9249999999999989      10.709999999999999
   212   1      16.064999999999998      7.1399999999999997      12.494999999999999
   213   1                 16.9575      8.0324999999999989      13.387499999999999
   214   1      15.172499999999999      8.0324999999999989      11.602499999999999
   215   1      15.172499999999999       9.817499999999999      13.387499999999999
   216   1                 16.9575       9.817499999999999      11.602499999999999
   217   1      14.279999999999999      10.709999999999999      10.709999999999999
   218   1      14.279999999999999      12.494999999999999      12.494999999999999
   219   1      16.064999999999998      12.494999999999999      10.709999999999999
   220   1      16.064999999999998      10.709999999999999      12.494999999999999
   221   1                 16.9575      11.602499999999999      13.387499999999999
   222   1      15.172499999999999      11.602499999999999      11.602499999999999
   223   1      15.172499999999999      13.387499999999999      13.387499999999999
   224   1                 16.9575      13.387499999999999      11.602499999999999
   225   1      14.279999999999999      14.279999999999999      10.709999999999999
   226   1      14.279999999999999      16.064999999999998      12.494999999999999
   227   1      16.064999999999998      16.064999999999998      10.709999999999999
   228   1      16.064999999999998      14.279999999999999      12.494999999999999
   229   1                 16.9575      15.172499999999999      13.387499999999999
   230   1      15.172499999999999      15.172499999999999      11.602499999999999
   231   1      15.172499999999999                 16.9575      13.387499999999999
   232   1                 16.9575                 16.9575      11.602499999999999
   233   1      14.279999999999999      17.849999999999998      10.709999999999999
   234   1      14.279999999999999      19.634999999999998      12.494999999999999
   235   1      16.064999999999998      19.634999999999998      10.709999999999999
   236   1      16.064999999999998      17.849999999999998      12.494999999999999
   237   1                 16.9575      18.742499999999996      13.387499999999999
   238   1      15.172499999999999      18.742499999999996      11.602499999999999
   239   1      15.172499999999999      20.527499999999996      13.387499999999999
   240   1                 16.9575      20.527499999999996      11.602499999999999
   241   1      17.849999999999998                       0      10.709999999999999
   242   1      17.849999999999998      1.7849999999999999      12.494999999999999
   243   1      19.634999999999998      1.7849999999999999      10.709999999999999
   244   1      19.634999999999998                       0      12.494999999999999
   245   1      20.527499999999996     0.89249999999999996      13.387499999999999
   246   1      18.742499999999996     0.89249999999999996      11.602499999999999
   247   1      18.742499999999996      2.6774999999999998      13.387499999999999
   248   1      20.527499999999996      2.6774999999999998      11.602499999999999
   249   1      17.849999999999998      3.5699999999999998      10.709999999999999
   250   1      17.849999999999998      5.3549999999999995      12.494999999999999
   251   1      19.634999999999998      5.3549999999999995      10.709999999999999
   252   1      19.634999999999998      3.5699999999999998      12.494999999999999
   253   1      20.527499999999996      4.4624999999999995      13.387499999999999
   254   1      18.742499999999996      4.4624999999999995      11.602499999999999
   255   1      18.742499999999996      6.2474999999999996      13.387499999999999
   256   1      20.527499999999996      6.2474999999999996      11.602499999999999
   257   1      17.849999999999998      7.1399999999999997      10.709999999999999
   258   1      17.849999999999998      8.9249999999999989      12.494999999999999
   259   1      19.634999999999998      8.9249999999999989      10.709999999999999
   260   1      19.634999999999998      7.1399999999999997      12.494999999999999
   261   1      20.527499999999996      8.0324999999999989      13.387499999999999
   262   1      18.742499999999996      8.0324999999999989      11.602499999999999
   263   1      18.742499999999996       9.817499999999999      13.387499999999999
   264   1      20.527499999999996       9.817499999999999      11.602499999999999
   265   1      17.849999999999998      10.709999999999999      10.709999999999999
   266   1      17.849999999999998      12.494999999999999      12.494999999999999
   267   1      19.634999999999998      12.494999999999999      10.709999999999999
   268   1      19.634999999999998      10.709999999999999      12.494999999999999
   269   1      20.527499999999996      11.602499999999999      13.387499999999999
   270   1      18.742499999999996      11.602499999999999      11.602499999999999
   271   1      18.742499999999996      13.387499999999999      13.387499999999999
   272   1      20.527499999999996      13.387499999999999      11.602499999999999
   273   1      17.849999999999998      14.279999999999999      10.709999999999999
   274   1      17.849999999999998      16.064999999999998      12.494999999999999
   275   1      19.634999999999998      16.064999999999998      10.709999999999999
   276   1      19.634999999999998      14.279999999999999      12.494999999999999
   277   1      20.527499999999996      15.172499999999999      13.387499999999999
   278   1      18.742499999999996      15.172499999999999      11.602499999999999
   279   1      18.742499999999996                 16.9575      13.387499999999999
   280   1      20.527499999999996                 16.9575      11.602499999999999
   281   1      17.849999999999998      17.849999999999998      10.709999999999999
   282   1      17.849999999999998      19.634999999999998      12.494999999999999
   283   1      19.634999999999998      19.634999999999998      10.709999999999999
   284   1      19.634999999999998      17.849999999999998      12.494999999999999
   285   1      20.527499999999996      18.742499999999996      13.387499999999999
   286   1      18.742499999999996      18.742499999999996      11.602499999999999
   287   1      18.742499999999996      20.527499999999996      13.387499999999999
   288   1      20.527499999999996      20.527499999999996      11.602499999999999
   289   1      21.419999999999998                       0      10.709999999999999
   290   1      21.419999999999998      1.7849999999999999      12.494999999999999
   291   1      23.204999999999998      1.7849999999999999      10.709999999999999
   292   1      23.204999999999998                       0      12.494999999999999
   293   1      24.097499999999997     0.89249999999999996      13.387499999999999
   294   1      22.312499999999996     0.89249999999999996      11.602499999999999
   295   1      22.312499999999996      2.6774999999999998      13.387499999999999
   296   1      24.097499999999997      2.6774999999999998      11.602499999999999
   297   1      21.419999999999998      3.5699999999999998      10.709999999999999
   298   1      21.419999999999998      5.3549999999999995      12.494999999999999
   299   1      23.204999999999998      5.3549999999999995      10.709999999999999
   300   1      23.204999999999998      3.5699999999999998      12.494999999999999
   301   1      24.097499999999997      4.4624999999999995      13.387499999999999
   302   1      22.312499999999996      4.4624999999999995      11.602499999999999
   303   1      22.312499999999996      6.2474999999999996      13.387499999999999
   304   1      24.097499999999997      6.2474999999999996      11.602499999999999
   305   1      21.419999999999998      7.1399999999999997      10.709999999999999
   306   1      21.419999999999998      8.9249999999999989      12.494999999999999
   307   1      23.204999999999998      8.9249999999999989      10.709999999999999
   308   1      23.204999999999998      7.1399999999999997      12.494999999999999
   309   1      24.097499999999997      8.0324999999999989      13.387499999999999
   310   1      22.312499999999996      8.0324999999999989      11.602499999999999
   311   1      22.312499999999996       9.817499999999999      13.387499999999999
   312   1      24.097499999999997       9.817499999999999      11.602499999999999
   313   1      21.419999999999998      10.709999999999999      10.709999999999999
   314   1      21.419999999999998      12.494999999999999      12.494999999999999
   315   1      23.204999999999998      12.494999999999999      10.709999999999999
   316   1      23.204999999999998      10.709999999999999      12.494999999999999
   317   1      24.097499999999997      11.602499999999999      13.387499999999999
   318   1      22.312499999999996      11.602499999999999      11.602499999999999
   319   1      22.312499999999996      13.387499999999999      13.387499999999999
   320   1      24.097499999999997      13.387499999999999      11.602499999999999
   321   1      21.419999999999998      14.279999999999999      10.709999999999999
   322   1      21.419999999999998      16.064999999999998      12.494999999999999
   323   1      23.204999999999998      16.064999999999998      10.709999999999999
   324   1      23.204999999999998      14.279999999999999      12.494999999999999
   325   1      24.097499999999997      15.172499999999999      13.387499999999999
   326   1      22.312499999999996      15.172499999999999      11.602499999999999
   327   1      22.312499999999996                 16.9575      13.387499999999999
   328   1      24.097499999999997                 16.9575      11.602499999999999
   329   1      21.419999999999998      17.849999999999998      10.709999999999999
   330   1      21.419999999999998      19.634999999999998      12.494999999999999
   331   1      23.204999999999998      19.634999999999998      10.709999999999999
   332   1      23.204999999999998      17.849999999999998      12.494999999999999
   333   1      24.097499999999997      18.742499999999996      13.387499999999999
   334   1      22.312499999999996      18.742499999999996      11.602499999999999
   335   1      22.312499999999996      20.527499999999996      13.387499999999999
   336   1      24.097499999999997      20.527499999999996      11.602499999999999
   337   1      24.989999999999998                       0      10.709999999999999
   338   1      24.989999999999998      1.7849999999999999      12.494999999999999
   339   1      26.774999999999999      1.7849999999999999      10.709999999999999
   340   1      26.774999999999999                       0      12.494999999999999
   341   1      27.667499999999997     0.89249999999999996      13.387499999999999
   342   1      25.882499999999997     0.89249999999999996      11.602499999999999
   343   1      25.882499999999997      2.6774999999999998      13.387499999999999
   344   1      27.667499999999997      2.6774999999999998      11.602499999999999
   345   1      24.989999999999998      3.5699999999999998      10.709999999999999
   346   1      24.989999999999998      5.3549999999999995      12.494999999999999
   347   1      26.774999999999999      5.3549999999999995      10.709999999999999
   348   1      26.774999999999999      3.5699999999999998      12.494999999999999
   349   1      27.667499999999997      4.4624999999999995      13.387499999999999
   350   1      25.882499999999997      4.4624999999999995      11.602499999999999
   351   1      25.882499999999997      6.2474999999999996      13.387499999999999
   352   1      27.667499999999997      6.2474999999999996      11.602499999999999
   353   1      24.989999999999998      7.1399999999999997      10.709999999999999
   354   1      24.989999999999998      8.9249999999999989      12.494999999999999
   355   1      26.774999999999999      8.9249999999999989      10.709999999999999
   356   1      26.774999999999999      7.1399999999999997      12.494999999999999
   357   1      27.667499999999997      8.0324999999999989      13.387499999999999
   358   1      25.882499999999997      8.0324999999999989      11.602499999999999
   359   1      25.882499999999997       9.817499999999999      13.387499999999999