./lammps_sheet (written by ASE) 

5994 	 atoms 
1  atom types
0.0                  130.38  xlo xhi
0.0      161.09804561198325  ylo yhi
0.0                       4  zlo zhi


Atoms 

     1   1      2.0000000000000071  9.9999999999999998e-13                       2
     2   1      2.7100000000000071      1.2297560733749029                       2
     3   1      2.0000000000000071      2.4595121467488057                       2
     4   1      2.7100000000000071      3.6892682201227087                       2
     5   1      2.0000000000000071      4.9190242934966113                       2
     6   1      2.7100000000000071      6.1487803668705139                       2
     7   1      2.0000000000000071      12.297560733740028                       2
     8   1      2.7100000000000071       13.52731680711393                       2
     9   1      2.0000000000000071      14.757072880487835                       2
    10   1      2.7100000000000071      15.986828953861737                       2
    11   1      2.0000000000000071      17.216585027235638                       2
    12   1      2.7100000000000071      18.446341100609541                       2
    13   1      2.0000000000000071      19.676097173983443                       2
    14   1      2.7100000000000071      20.905853247357346                       2
    15   1      2.0000000000000071      22.135609320731248                       2
    16   1      2.7100000000000071      23.365365394105151                       2
    17   1      2.0000000000000071      24.595121467479053                       2
    18   1      2.7100000000000071      25.824877540852956                       2
    19   1      2.0000000000000071      27.054633614226859                       2
    20   1      2.7100000000000071      28.284389687600761                       2
    21   1      2.0000000000000071      29.514145760974667                       2
    22   1      2.7100000000000071       30.74390183434857                       2
    23   1      2.0000000000000071      31.973657907722473                       2
    24   1      2.7100000000000071      33.203413981096382                       2
    25   1      2.0000000000000071      34.433170054470281                       2
    26   1      2.7100000000000071      35.662926127844187                       2
    27   1      2.0000000000000071      36.892682201218086                       2
    28   1      2.7100000000000071      38.122438274591993                       2
    29   1      2.0000000000000071      39.352194347965892                       2
    30   1      2.7100000000000071      40.581950421339798                       2
    31   1      2.0000000000000071      46.730730788209307                       2
    32   1      2.7100000000000071      47.960486861583213                       2
    33   1      2.0000000000000071      49.190242934957112                       2
    34   1      2.7100000000000071      50.419999008331018                       2
    35   1      2.0000000000000071      51.649755081704917                       2
    36   1      2.7100000000000071      52.879511155078823                       2
    37   1      2.0000000000000071      54.109267228452723                       2
    38   1      2.7100000000000071      55.339023301826629                       2
    39   1      2.0000000000000071      56.568779375200528                       2
    40   1      2.7100000000000071      57.798535448574434                       2
    41   1      2.0000000000000071       59.02829152194834                       2
    42   1      2.7100000000000071      60.258047595322246                       2
    43   1      2.0000000000000071      61.487803668696145                       2
    44   1      2.7100000000000071      62.717559742070051                       2
    45   1      2.0000000000000071       63.94731581544395                       2
    46   1      2.7100000000000071      65.177071888817849                       2
    47   1      2.0000000000000071      66.406827962191741                       2
    48   1      2.7100000000000071      67.636584035565647                       2
    49   1      2.0000000000000071      68.866340108939553                       2
    50   1      2.7100000000000071       70.09609618231346                       2
    51   1      2.0000000000000071      71.325852255687352                       2
    52   1      2.7100000000000071      72.555608329061258                       2
    53   1      2.0000000000000071      73.785364402435164                       2
    54   1      2.7100000000000071       75.01512047580907                       2
    55   1      2.0000000000000071      81.163900842678586                       2
    56   1      2.7100000000000071      82.393656916052493                       2
    57   1      2.0000000000000071      83.623412989426384                       2
    58   1      2.7100000000000071      84.853169062800291                       2
    59   1      2.0000000000000071      86.082925136174197                       2
    60   1      2.7100000000000071      87.312681209548103                       2
    61   1      2.0000000000000071      88.542437282921995                       2
    62   1      2.7100000000000071      89.772193356295901                       2
    63   1      2.0000000000000071      91.001949429669807                       2
    64   1      2.7100000000000071      92.231705503043713                       2
    65   1      2.0000000000000071      93.461461576417605                       2
    66   1      2.7100000000000071      94.691217649791511                       2
    67   1      2.0000000000000071      95.920973723165417                       2
    68   1      2.7100000000000071      97.150729796539324                       2
    69   1      2.0000000000000071      98.380485869913215                       2
    70   1      2.7100000000000071      99.610241943287122                       2
    71   1      2.0000000000000071      100.83999801666103                       2
    72   1      2.7100000000000071      102.06975409003493                       2
    73   1      2.0000000000000071      103.29951016340883                       2
    74   1      2.7100000000000071      104.52926623678273                       2
    75   1      2.0000000000000071      105.75902231015664                       2
    76   1      2.7100000000000071      106.98877838353054                       2
    77   1      2.0000000000000071      108.21853445690444                       2
    78   1      2.7100000000000071      109.44829053027834                       2
    79   1      2.0000000000000071      115.59707089714786                       2
    80   1      2.7100000000000071      116.82682697052176                       2
    81   1      2.0000000000000071      118.05658304389567                       2
    82   1      2.7100000000000071      119.28633911726958                       2
    83   1      2.0000000000000071      120.51609519064347                       2
    84   1      2.7100000000000071      121.74585126401738                       2
    85   1      2.0000000000000071      122.97560733739128                       2
    86   1      2.7100000000000071      124.20536341076519                       2
    87   1      2.0000000000000071      125.43511948413908                       2
    88   1      2.7100000000000071      126.66487555751299                       2
    89   1      2.0000000000000071      127.89463163088689                       2
    90   1      2.7100000000000071      129.12438770426078                       2
    91   1      2.0000000000000071       130.3541437776347                       2
    92   1      2.7100000000000071       131.5838998510086                       2
    93   1      2.0000000000000071      132.81365592438249                       2
    94   1      2.7100000000000071      134.04341199775638                       2
    95   1      2.0000000000000071       135.2731680711303                       2
    96   1      2.7100000000000071      136.50292414450419                       2
    97   1      2.0000000000000071      137.73268021787811                       2
    98   1      2.7100000000000071        138.962436291252                       2
    99   1      2.0000000000000071      140.19219236462592                       2
   100   1      2.7100000000000071      141.42194843799982                       2
   101   1      2.0000000000000071      142.65170451137371                       2
   102   1      2.7100000000000071       143.8814605847476                       2
   103   1      2.0000000000000071      150.03024095161715                       2
   104   1      2.7100000000000071      151.25999702499104                       2
   105   1      2.0000000000000071      152.48975309836493                       2
   106   1      2.7100000000000071      153.71950917173882                       2
   107   1      2.0000000000000071      154.94926524511274                       2
   108   1      2.7100000000000071      156.17902131848663                       2
   109   1      2.0000000000000071      157.40877739186055                       2
   110   1      2.7100000000000071      158.63853346523445                       2
   111   1      2.0000000000000071      159.86828953860837                       2
   112   1      2.7100000000000071      161.09804561198226                       2
   113   1       4.840000000000007  9.7157829056959597e-13                       2
   114   1       4.130000000000007      1.2297560733749029                       2
   115   1       4.840000000000007      2.4595121467488057                       2
   116   1       4.130000000000007      3.6892682201227087                       2
   117   1       4.840000000000007      4.9190242934966113                       2
   118   1       4.130000000000007      6.1487803668705139                       2
   119   1       4.840000000000007      7.3785364402444165                       2
   120   1       4.130000000000007       13.52731680711393                       2
   121   1       4.840000000000007      14.757072880487833                       2
   122   1       4.130000000000007      15.986828953861737                       2
   123   1       4.840000000000007      17.216585027235638                       2
   124   1       4.130000000000007      18.446341100609541                       2
   125   1       4.840000000000007      19.676097173983443                       2
   126   1       4.130000000000007      20.905853247357346                       2
   127   1       4.840000000000007      22.135609320731248                       2
   128   1       4.130000000000007      23.365365394105151                       2
   129   1       4.840000000000007      24.595121467479053                       2
   130   1       4.130000000000007      25.824877540852956                       2
   131   1       4.840000000000007      27.054633614226859                       2
   132   1       4.130000000000007      28.284389687600761                       2
   133   1       4.840000000000007      29.514145760974664                       2
   134   1       4.130000000000007       30.74390183434857                       2
   135   1       4.840000000000007      31.973657907722473                       2
   136   1       4.130000000000007      33.203413981096382                       2
   137   1       4.130000000000007      38.122438274591993                       2
   138   1       4.840000000000007      39.352194347965899                       2
   139   1       4.130000000000007      40.581950421339798                       2
   140   1       4.840000000000007      41.811706494713704                       2
   141   1       4.130000000000007      47.960486861583213                       2
   142   1       4.840000000000007      49.190242934957119                       2
   143   1       4.130000000000007      50.419999008331018                       2
   144   1       4.840000000000007      51.649755081704924                       2
   145   1       4.130000000000007      52.879511155078823                       2
   146   1       4.840000000000007       54.10926722845273                       2
   147   1       4.130000000000007      55.339023301826629                       2
   148   1       4.840000000000007      56.568779375200535                       2
   149   1       4.130000000000007      57.798535448574434                       2
   150   1       4.840000000000007       59.02829152194834                       2
   151   1       4.130000000000007      60.258047595322246                       2
   152   1       4.840000000000007      61.487803668696152                       2
   153   1       4.130000000000007      62.717559742070051                       2
   154   1       4.840000000000007      63.947315815443957                       2
   155   1       4.130000000000007      65.177071888817849                       2
   156   1       4.840000000000007      66.406827962191755                       2
   157   1       4.130000000000007      67.636584035565647                       2
   158   1       4.130000000000007      72.555608329061258                       2
   159   1       4.840000000000007      73.785364402435164                       2
   160   1       4.130000000000007       75.01512047580907                       2
   161   1       4.840000000000007      76.244876549182976                       2
   162   1       4.130000000000007      82.393656916052493                       2
   163   1       4.840000000000007      83.623412989426399                       2
   164   1       4.130000000000007      84.853169062800291                       2
   165   1       4.840000000000007      86.082925136174197                       2
   166   1       4.130000000000007      87.312681209548103                       2
   167   1       4.840000000000007      88.542437282922009                       2
   168   1       4.130000000000007      89.772193356295901                       2
   169   1       4.840000000000007      91.001949429669807                       2
   170   1       4.130000000000007      92.231705503043713                       2
   171   1       4.840000000000007      93.461461576417619                       2
   172   1       4.130000000000007      94.691217649791511                       2
   173   1       4.840000000000007      95.920973723165417                       2
   174   1       4.130000000000007      97.150729796539324                       2
   175   1       4.840000000000007       98.38048586991323                       2
   176   1       4.130000000000007      99.610241943287122                       2
   177   1       4.840000000000007      100.83999801666103                       2
   178   1       4.130000000000007      102.06975409003493                       2
   179   1       4.130000000000007      106.98877838353054                       2
   180   1       4.840000000000007      108.21853445690445                       2
   181   1       4.130000000000007      109.44829053027834                       2
   182   1       4.840000000000007      110.67804660365225                       2
   183   1       4.130000000000007      116.82682697052176                       2
   184   1       4.840000000000007      118.05658304389567                       2
   185   1       4.130000000000007      119.28633911726958                       2
   186   1       4.840000000000007      120.51609519064348                       2
   187   1       4.130000000000007      121.74585126401738                       2
   188   1       4.840000000000007      122.97560733739128                       2
   189   1       4.130000000000007      124.20536341076519                       2
   190   1       4.840000000000007      125.43511948413909                       2
   191   1       4.130000000000007      126.66487555751299                       2
   192   1       4.840000000000007      127.89463163088689                       2
   193   1       4.130000000000007      129.12438770426078                       2
   194   1       4.840000000000007      130.35414377763468                       2
   195   1       4.130000000000007       131.5838998510086                       2
   196   1       4.840000000000007      132.81365592438249                       2
   197   1       4.130000000000007      134.04341199775638                       2
   198   1       4.840000000000007      135.27316807113027                       2
   199   1       4.130000000000007      136.50292414450419                       2
   200   1       4.130000000000007      141.42194843799982                       2
   201   1       4.840000000000007      142.65170451137371                       2
   202   1       4.130000000000007       143.8814605847476                       2
   203   1       4.840000000000007      145.11121665812149                       2
   204   1       4.130000000000007      151.25999702499104                       2
   205   1       4.840000000000007      152.48975309836493                       2
   206   1       4.130000000000007      153.71950917173882                       2
   207   1       4.840000000000007      154.94926524511271                       2
   208   1       4.130000000000007      156.17902131848663                       2
   209   1       4.840000000000007      157.40877739186053                       2
   210   1       4.130000000000007      158.63853346523445                       2
   211   1       4.840000000000007      159.86828953860834                       2
   212   1       4.130000000000007      161.09804561198226                       2
   213   1      6.2600000000000069  9.9999999999999998e-13                       2
   214   1      6.9700000000000069      1.2297560733749029                       2
   215   1      6.2600000000000069      2.4595121467488057                       2
   216   1      6.9700000000000069      3.6892682201227087                       2
   217   1      6.2600000000000069      4.9190242934966113                       2
   218   1      6.9700000000000069      6.1487803668705139                       2
   219   1      6.2600000000000069      7.3785364402444173                       2
   220   1      6.9700000000000069      8.6082925136183199                       2
   221   1      6.2600000000000069      14.757072880487835                       2
   222   1      6.9700000000000069      15.986828953861737                       2
   223   1      6.2600000000000069      17.216585027235638                       2
   224   1      6.9700000000000069      18.446341100609541                       2
   225   1      6.2600000000000069      19.676097173983443                       2
   226   1      6.9700000000000069      20.905853247357346                       2
   227   1      6.2600000000000069      22.135609320731248                       2
   228   1      6.9700000000000069      23.365365394105151                       2
   229   1      6.2600000000000069      24.595121467479053                       2
   230   1      6.9700000000000069      25.824877540852956                       2
   231   1      6.2600000000000069      27.054633614226859                       2
   232   1      6.9700000000000069      28.284389687600761                       2
   233   1      6.2600000000000069      29.514145760974667                       2
   234   1      6.9700000000000069      38.122438274591993                       2
   235   1      6.2600000000000069      39.352194347965892                       2
   236   1      6.9700000000000069      40.581950421339798                       2
   237   1      6.2600000000000069      41.811706494713697                       2
   238   1      6.9700000000000069      43.041462568087603                       2
   239   1      6.2600000000000069      49.190242934957112                       2
   240   1      6.9700000000000069      50.419999008331018                       2
   241   1      6.2600000000000069      51.649755081704917                       2
   242   1      6.9700000000000069      52.879511155078823                       2
   243   1      6.2600000000000069      54.109267228452723                       2
   244   1      6.9700000000000069      55.339023301826629                       2
   245   1      6.2600000000000069      56.568779375200528                       2
   246   1      6.9700000000000069      57.798535448574434                       2
   247   1      6.2600000000000069       59.02829152194834                       2
   248   1      6.9700000000000069      60.258047595322246                       2
   249   1      6.2600000000000069      61.487803668696145                       2
   250   1      6.9700000000000069      62.717559742070051                       2
   251   1      6.2600000000000069       63.94731581544395                       2
   252   1      6.9700000000000069      72.555608329061258                       2
   253   1      6.2600000000000069      73.785364402435164                       2
   254   1      6.9700000000000069       75.01512047580907                       2
   255   1      6.2600000000000069      76.244876549182962                       2
   256   1      6.9700000000000069      77.474632622556868                       2
   257   1      6.2600000000000069      83.623412989426384                       2
   258   1      6.9700000000000069      84.853169062800291                       2
   259   1      6.2600000000000069      86.082925136174197                       2
   260   1      6.9700000000000069      87.312681209548103                       2
   261   1      6.2600000000000069      88.542437282921995                       2
   262   1      6.9700000000000069      89.772193356295901                       2
   263   1      6.2600000000000069      91.001949429669807                       2
   264   1      6.9700000000000069      92.231705503043713                       2
   265   1      6.2600000000000069      93.461461576417605                       2
   266   1      6.9700000000000069      94.691217649791511                       2
   267   1      6.2600000000000069      95.920973723165417                       2
   268   1      6.9700000000000069      97.150729796539324                       2
   269   1      6.2600000000000069      98.380485869913215                       2
   270   1      6.9700000000000069      106.98877838353054                       2
   271   1      6.2600000000000069      108.21853445690444                       2
   272   1      6.9700000000000069      109.44829053027834                       2
   273   1      6.2600000000000069      110.67804660365225                       2
   274   1      6.9700000000000069      111.90780267702615                       2
   275   1      6.2600000000000069      118.05658304389567                       2
   276   1      6.9700000000000069      119.28633911726958                       2
   277   1      6.2600000000000069      120.51609519064347                       2
   278   1      6.9700000000000069      121.74585126401738                       2
   279   1      6.2600000000000069      122.97560733739128                       2
   280   1      6.9700000000000069      124.20536341076519                       2
   281   1      6.2600000000000069      125.43511948413908                       2
   282   1      6.9700000000000069      126.66487555751299                       2
   283   1      6.2600000000000069      127.89463163088689                       2
   284   1      6.9700000000000069      129.12438770426078                       2
   285   1      6.2600000000000069       130.3541437776347                       2
   286   1      6.9700000000000069       131.5838998510086                       2
   287   1      6.2600000000000069      132.81365592438249                       2
   288   1      6.9700000000000069      141.42194843799982                       2
   289   1      6.2600000000000069      142.65170451137371                       2
   290   1      6.9700000000000069       143.8814605847476                       2
   291   1      6.2600000000000069      145.11121665812152                       2
   292   1      6.9700000000000069      146.34097273149541                       2
   293   1      6.2600000000000069      152.48975309836493                       2
   294   1      6.9700000000000069      153.71950917173882                       2
   295   1      6.2600000000000069      154.94926524511274                       2
   296   1      6.9700000000000069      156.17902131848663                       2
   297   1      6.2600000000000069      157.40877739186055                       2
   298   1      6.9700000000000069      158.63853346523445                       2
   299   1      6.2600000000000069      159.86828953860837                       2
   300   1      6.9700000000000069      161.09804561198226                       2
   301   1      9.1000000000000068  9.7157829056959597e-13                       2
   302   1      8.3900000000000077      1.2297560733749029                       2
   303   1      9.1000000000000068      2.4595121467488057                       2
   304   1      8.3900000000000077      3.6892682201227087                       2
   305   1      9.1000000000000068      4.9190242934966113                       2
   306   1      8.3900000000000077      6.1487803668705139                       2
   307   1      9.1000000000000068      7.3785364402444165                       2
   308   1      8.3900000000000077      8.6082925136183199                       2
   309   1      9.1000000000000068      9.8380485869922225                       2
   310   1      8.3900000000000077      15.986828953861737                       2
   311   1      9.1000000000000068      17.216585027235638                       2
   312   1      8.3900000000000077      18.446341100609541                       2
   313   1      9.1000000000000068      19.676097173983443                       2
   314   1      8.3900000000000077      20.905853247357346                       2
   315   1      9.1000000000000068      22.135609320731248                       2
   316   1      8.3900000000000077      23.365365394105151                       2
   317   1      9.1000000000000068      24.595121467479053                       2
   318   1      8.3900000000000077      25.824877540852956                       2
   319   1      9.1000000000000068      34.433170054470288                       2
   320   1      8.3900000000000077      35.662926127844187                       2
   321   1      9.1000000000000068      36.892682201218093                       2
   322   1      8.3900000000000077      38.122438274591993                       2
   323   1      9.1000000000000068      39.352194347965899                       2
   324   1      8.3900000000000077      40.581950421339798                       2
   325   1      9.1000000000000068      41.811706494713704                       2
   326   1      8.3900000000000077      43.041462568087603                       2
   327   1      9.1000000000000068      44.271218641461509                       2
   328   1      8.3900000000000077      50.419999008331018                       2
   329   1      9.1000000000000068      51.649755081704924                       2
   330   1      8.3900000000000077      52.879511155078823                       2
   331   1      9.1000000000000068       54.10926722845273                       2
   332   1      8.3900000000000077      55.339023301826629                       2
   333   1      9.1000000000000068      56.568779375200535                       2
   334   1      8.3900000000000077      57.798535448574434                       2
   335   1      9.1000000000000068       59.02829152194834                       2
   336   1      8.3900000000000077      60.258047595322246                       2
   337   1      9.1000000000000068      68.866340108939553                       2
   338   1      8.3900000000000077       70.09609618231346                       2
   339   1      9.1000000000000068      71.325852255687366                       2
   340   1      8.3900000000000077      72.555608329061258                       2
   341   1      9.1000000000000068      73.785364402435164                       2
   342   1      8.3900000000000077       75.01512047580907                       2
   343   1      9.1000000000000068      76.244876549182976                       2
   344   1      8.3900000000000077      77.474632622556868                       2
   345   1      9.1000000000000068      78.704388695930774                       2
   346   1      8.3900000000000077      84.853169062800291                       2
   347   1      9.1000000000000068      86.082925136174197                       2
   348   1      8.3900000000000077      87.312681209548103                       2
   349   1      9.1000000000000068      88.542437282922009                       2
   350   1      8.3900000000000077      89.772193356295901                       2
   351   1      9.1000000000000068      91.001949429669807                       2
   352   1      8.3900000000000077      92.231705503043713                       2
   353   1      9.1000000000000068      93.461461576417619                       2
   354   1      8.3900000000000077      94.691217649791511                       2
   355   1      9.1000000000000068      103.29951016340884                       2
   356   1      8.3900000000000077      104.52926623678273                       2
   357   1      9.1000000000000068      105.75902231015664                       2
   358   1      8.3900000000000077      106.98877838353054                       2
   359   1      9.1000000000000068      108.21853445690445                       2