./lammps_sheet (written by ASE) 

2197 	 atoms 
1  atom types
0.0      87.779999999999987  xlo xhi
0.0      98.380485869912221  ylo yhi
0.0                       4  zlo zhi


Atoms 

     1   1                       2      4.9190242934956112                       2
     2   1                    2.71      6.1487803668695138                       2
     3   1                       2      7.3785364402434173                       2
     4   1                    2.71      8.6082925136173198                       2
     5   1                       2      9.8380485869912224                       2
     6   1                       2      14.757072880486835                       2
     7   1                    2.71      15.986828953860737                       2
     8   1                       2       17.21658502723464                       2
     9   1                    2.71      18.446341100608542                       2
    10   1                    2.71      23.365365394104153                       2
    11   1                       2      24.595121467478055                       2
    12   1                    2.71      25.824877540851958                       2
    13   1                       2       27.05463361422586                       2
    14   1                    2.71      28.284389687599763                       2
    15   1                       2      29.514145760973669                       2
    16   1                    2.71      30.743901834347572                       2
    17   1                       2      31.973657907721474                       2
    18   1                    2.71       33.20341398109538                       2
    19   1                       2      34.433170054469279                       2
    20   1                    2.71      35.662926127843185                       2
    21   1                       2      36.892682201217085                       2
    22   1                    2.71      38.122438274590991                       2
    23   1                       2        44.2712186414605                       2
    24   1                    2.71      45.500974714834406                       2
    25   1                       2      46.730730788208305                       2
    26   1                    2.71      47.960486861582211                       2
    27   1                       2       49.19024293495611                       2
    28   1                       2      54.109267228451721                       2
    29   1                    2.71      55.339023301825627                       2
    30   1                       2      56.568779375199526                       2
    31   1                    2.71      57.798535448573432                       2
    32   1                    2.71      62.717559742069049                       2
    33   1                       2      63.947315815442948                       2
    34   1                    2.71      65.177071888816855                       2
    35   1                       2      66.406827962190746                       2
    36   1                    2.71      67.636584035564653                       2
    37   1                       2      68.866340108938559                       2
    38   1                    2.71      70.096096182312465                       2
    39   1                       2      71.325852255686357                       2
    40   1                    2.71      72.555608329060263                       2
    41   1                       2      73.785364402434169                       2
    42   1                    2.71      75.015120475808075                       2
    43   1                       2      76.244876549181967                       2
    44   1                    2.71      77.474632622555873                       2
    45   1                       2       83.62341298942539                       2
    46   1                    2.71      84.853169062799296                       2
    47   1                       2      86.082925136173202                       2
    48   1                    2.71      87.312681209547108                       2
    49   1                       2         88.542437282921                       2
    50   1                       2       93.46146157641661                       2
    51   1                    2.71      94.691217649790516                       2
    52   1                       2      95.920973723164423                       2
    53   1                    2.71      97.150729796538329                       2
    54   1      4.8399999999999999  1.4210854715202004e-14                       2
    55   1      4.8399999999999999      4.9190242934956112                       2
    56   1      4.1299999999999999      6.1487803668695138                       2
    57   1      4.8399999999999999      7.3785364402434164                       2
    58   1      4.1299999999999999      8.6082925136173198                       2
    59   1      4.8399999999999999      9.8380485869912224                       2
    60   1      4.1299999999999999      15.986828953860737                       2
    61   1      4.8399999999999999       17.21658502723464                       2
    62   1      4.1299999999999999      18.446341100608542                       2
    63   1      4.8399999999999999      19.676097173982445                       2
    64   1      4.1299999999999999      20.905853247356347                       2
    65   1      4.8399999999999999       22.13560932073025                       2
    66   1      4.1299999999999999      23.365365394104153                       2
    67   1      4.8399999999999999      24.595121467478055                       2
    68   1      4.1299999999999999      25.824877540851958                       2
    69   1      4.8399999999999999       27.05463361422586                       2
    70   1      4.1299999999999999      28.284389687599763                       2
    71   1      4.8399999999999999      29.514145760973665                       2
    72   1      4.1299999999999999      30.743901834347572                       2
    73   1      4.1299999999999999      35.662926127843185                       2
    74   1      4.8399999999999999      36.892682201217092                       2
    75   1      4.1299999999999999      38.122438274590991                       2
    76   1      4.8399999999999999      39.352194347964897                       2
    77   1      4.8399999999999999      44.271218641460507                       2
    78   1      4.1299999999999999      45.500974714834406                       2
    79   1      4.8399999999999999      46.730730788208312                       2
    80   1      4.1299999999999999      47.960486861582211                       2
    81   1      4.8399999999999999      49.190242934956117                       2
    82   1      4.1299999999999999      55.339023301825627                       2
    83   1      4.8399999999999999      56.568779375199533                       2
    84   1      4.1299999999999999      57.798535448573432                       2
    85   1      4.8399999999999999      59.028291521947338                       2
    86   1      4.1299999999999999      60.258047595321244                       2
    87   1      4.8399999999999999       61.48780366869515                       2
    88   1      4.1299999999999999      62.717559742069049                       2
    89   1      4.8399999999999999      63.947315815442956                       2
    90   1      4.1299999999999999      65.177071888816855                       2
    91   1      4.8399999999999999      66.406827962190761                       2
    92   1      4.1299999999999999      67.636584035564653                       2
    93   1      4.8399999999999999      68.866340108938559                       2
    94   1      4.1299999999999999      70.096096182312465                       2
    95   1      4.1299999999999999      75.015120475808075                       2
    96   1      4.8399999999999999      76.244876549181981                       2
    97   1      4.1299999999999999      77.474632622555873                       2
    98   1      4.8399999999999999      78.704388695929779                       2
    99   1      4.8399999999999999      83.623412989425404                       2
   100   1      4.1299999999999999      84.853169062799296                       2
   101   1      4.8399999999999999      86.082925136173202                       2
   102   1      4.1299999999999999      87.312681209547108                       2
   103   1      4.8399999999999999      88.542437282921014                       2
   104   1      4.1299999999999999      94.691217649790516                       2
   105   1      4.8399999999999999      95.920973723164423                       2
   106   1      4.1299999999999999      97.150729796538329                       2
   107   1      6.2599999999999998                       0                       2
   108   1      6.9699999999999998      1.2297560733739028                       2
   109   1      6.2599999999999998      2.4595121467478056                       2
   110   1      6.9699999999999998      3.6892682201217086                       2
   111   1      6.2599999999999998      4.9190242934956112                       2
   112   1      6.9699999999999998      6.1487803668695138                       2
   113   1      6.2599999999999998      7.3785364402434173                       2
   114   1      6.9699999999999998      8.6082925136173198                       2
   115   1      6.2599999999999998      9.8380485869912224                       2
   116   1      6.9699999999999998      11.067804660365125                       2
   117   1      6.2599999999999998       17.21658502723464                       2
   118   1      6.9699999999999998      18.446341100608542                       2
   119   1      6.2599999999999998      19.676097173982445                       2
   120   1      6.9699999999999998      20.905853247356347                       2
   121   1      6.2599999999999998       22.13560932073025                       2
   122   1      6.2599999999999998       27.05463361422586                       2
   123   1      6.9699999999999998      28.284389687599763                       2
   124   1      6.2599999999999998      29.514145760973669                       2
   125   1      6.9699999999999998      30.743901834347572                       2
   126   1      6.9699999999999998      35.662926127843185                       2
   127   1      6.2599999999999998      36.892682201217085                       2
   128   1      6.9699999999999998      38.122438274590991                       2
   129   1      6.2599999999999998       39.35219434796489                       2
   130   1      6.9699999999999998      40.581950421338796                       2
   131   1      6.2599999999999998      41.811706494712695                       2
   132   1      6.9699999999999998      43.041462568086601                       2
   133   1      6.2599999999999998        44.2712186414605                       2
   134   1      6.9699999999999998      45.500974714834406                       2
   135   1      6.2599999999999998      46.730730788208305                       2
   136   1      6.9699999999999998      47.960486861582211                       2
   137   1      6.2599999999999998       49.19024293495611                       2
   138   1      6.9699999999999998      50.419999008330016                       2
   139   1      6.2599999999999998      56.568779375199526                       2
   140   1      6.9699999999999998      57.798535448573432                       2
   141   1      6.2599999999999998      59.028291521947338                       2
   142   1      6.9699999999999998      60.258047595321244                       2
   143   1      6.2599999999999998      61.487803668695143                       2
   144   1      6.2599999999999998      66.406827962190746                       2
   145   1      6.9699999999999998      67.636584035564653                       2
   146   1      6.2599999999999998      68.866340108938559                       2
   147   1      6.9699999999999998      70.096096182312465                       2
   148   1      6.9699999999999998      75.015120475808075                       2
   149   1      6.2599999999999998      76.244876549181967                       2
   150   1      6.9699999999999998      77.474632622555873                       2
   151   1      6.2599999999999998      78.704388695929779                       2
   152   1      6.9699999999999998      79.934144769303686                       2
   153   1      6.2599999999999998      81.163900842677592                       2
   154   1      6.9699999999999998      82.393656916051498                       2
   155   1      6.2599999999999998       83.62341298942539                       2
   156   1      6.9699999999999998      84.853169062799296                       2
   157   1      6.2599999999999998      86.082925136173202                       2
   158   1      6.9699999999999998      87.312681209547108                       2
   159   1      6.2599999999999998         88.542437282921                       2
   160   1      6.9699999999999998      89.772193356294906                       2
   161   1      6.2599999999999998      95.920973723164423                       2
   162   1      6.9699999999999998      97.150729796538329                       2
   163   1      9.0999999999999996  1.4210854715202004e-14                       2
   164   1      8.3900000000000006      1.2297560733739028                       2
   165   1      9.0999999999999996      2.4595121467478056                       2
   166   1      8.3900000000000006      3.6892682201217086                       2
   167   1      8.3900000000000006      8.6082925136173198                       2
   168   1      9.0999999999999996      9.8380485869912224                       2
   169   1      8.3900000000000006      11.067804660365125                       2
   170   1      9.0999999999999996      12.297560733739028                       2
   171   1      9.0999999999999996       17.21658502723464                       2
   172   1      8.3900000000000006      18.446341100608542                       2
   173   1      9.0999999999999996      19.676097173982445                       2
   174   1      8.3900000000000006      20.905853247356347                       2
   175   1      9.0999999999999996       22.13560932073025                       2
   176   1      8.3900000000000006      28.284389687599763                       2
   177   1      9.0999999999999996      29.514145760973665                       2
   178   1      8.3900000000000006      30.743901834347572                       2
   179   1      9.0999999999999996      31.973657907721474                       2
   180   1      8.3900000000000006       33.20341398109538                       2
   181   1      9.0999999999999996      34.433170054469286                       2
   182   1      8.3900000000000006      35.662926127843185                       2
   183   1      9.0999999999999996      36.892682201217092                       2
   184   1      8.3900000000000006      38.122438274590991                       2
   185   1      9.0999999999999996      39.352194347964897                       2
   186   1      8.3900000000000006      40.581950421338796                       2
   187   1      9.0999999999999996      41.811706494712702                       2
   188   1      8.3900000000000006      43.041462568086601                       2
   189   1      8.3900000000000006      47.960486861582211                       2
   190   1      9.0999999999999996      49.190242934956117                       2
   191   1      8.3900000000000006      50.419999008330016                       2
   192   1      9.0999999999999996      51.649755081703923                       2
   193   1      9.0999999999999996      56.568779375199533                       2
   194   1      8.3900000000000006      57.798535448573432                       2
   195   1      9.0999999999999996      59.028291521947338                       2
   196   1      8.3900000000000006      60.258047595321244                       2
   197   1      9.0999999999999996       61.48780366869515                       2
   198   1      8.3900000000000006      67.636584035564653                       2
   199   1      9.0999999999999996      68.866340108938559                       2
   200   1      8.3900000000000006      70.096096182312465                       2
   201   1      9.0999999999999996      71.325852255686371                       2
   202   1      8.3900000000000006      72.555608329060263                       2
   203   1      9.0999999999999996      73.785364402434169                       2
   204   1      8.3900000000000006      75.015120475808075                       2
   205   1      9.0999999999999996      76.244876549181981                       2
   206   1      8.3900000000000006      77.474632622555873                       2
   207   1      9.0999999999999996      78.704388695929779                       2
   208   1      8.3900000000000006      79.934144769303686                       2
   209   1      9.0999999999999996      81.163900842677592                       2
   210   1      8.3900000000000006      82.393656916051498                       2
   211   1      8.3900000000000006      87.312681209547108                       2
   212   1      9.0999999999999996      88.542437282921014                       2
   213   1      8.3900000000000006      89.772193356294906                       2
   214   1      9.0999999999999996      91.001949429668812                       2
   215   1      9.0999999999999996      95.920973723164423                       2
   216   1      8.3900000000000006      97.150729796538329                       2
   217   1                   10.52                       0                       2
   218   1                   11.23      1.2297560733739028                       2
   219   1                   10.52      2.4595121467478056                       2
   220   1                   11.23      3.6892682201217086                       2
   221   1                   11.23      8.6082925136173198                       2
   222   1                   10.52      9.8380485869912224                       2
   223   1                   11.23      11.067804660365125                       2
   224   1                   10.52      12.297560733739028                       2
   225   1                   11.23       13.52731680711293                       2
   226   1                   10.52      14.757072880486835                       2
   227   1                   11.23      15.986828953860737                       2
   228   1                   10.52       17.21658502723464                       2
   229   1                   11.23      18.446341100608542                       2
   230   1                   10.52      19.676097173982445                       2
   231   1                   11.23      20.905853247356347                       2
   232   1                   10.52       22.13560932073025                       2
   233   1                   11.23      23.365365394104153                       2
   234   1                   10.52      29.514145760973669                       2
   235   1                   11.23      30.743901834347572                       2
   236   1                   10.52      31.973657907721474                       2
   237   1                   11.23       33.20341398109538                       2
   238   1                   10.52      34.433170054469279                       2
   239   1                   10.52       39.35219434796489                       2
   240   1                   11.23      40.581950421338796                       2
   241   1                   10.52      41.811706494712695                       2
   242   1                   11.23      43.041462568086601                       2
   243   1                   11.23      47.960486861582211                       2
   244   1                   10.52       49.19024293495611                       2
   245   1                   11.23      50.419999008330016                       2
   246   1                   10.52      51.649755081703915                       2
   247   1                   11.23      52.879511155077822                       2
   248   1                   10.52      54.109267228451721                       2
   249   1                   11.23      55.339023301825627                       2
   250   1                   10.52      56.568779375199526                       2
   251   1                   11.23      57.798535448573432                       2
   252   1                   10.52      59.028291521947338                       2
   253   1                   11.23      60.258047595321244                       2
   254   1                   10.52      61.487803668695143                       2
   255   1                   11.23      62.717559742069049                       2
   256   1                   10.52      68.866340108938559                       2
   257   1                   11.23      70.096096182312465                       2
   258   1                   10.52      71.325852255686357                       2
   259   1                   11.23      72.555608329060263                       2
   260   1                   10.52      73.785364402434169                       2
   261   1                   10.52      78.704388695929779                       2
   262   1                   11.23      79.934144769303686                       2
   263   1                   10.52      81.163900842677592                       2
   264   1                   11.23      82.393656916051498                       2
   265   1                   11.23      87.312681209547108                       2
   266   1                   10.52         88.542437282921                       2
   267   1                   11.23      89.772193356294906                       2
   268   1                   10.52      91.001949429668812                       2
   269   1                   11.23      92.231705503042718                       2
   270   1                   10.52       93.46146157641661                       2
   271   1                   11.23      94.691217649790516                       2
   272   1                   10.52      95.920973723164423                       2
   273   1                   11.23      97.150729796538329                       2
   274   1      12.649999999999999      1.2297560733739028                       2
   275   1      13.359999999999999      2.4595121467478056                       2
   276   1      12.649999999999999      3.6892682201217086                       2
   277   1      13.359999999999999      4.9190242934956112                       2
   278   1      12.649999999999999      6.1487803668695138                       2
   279   1      13.359999999999999      7.3785364402434164                       2
   280   1      12.649999999999999      8.6082925136173198                       2
   281   1      13.359999999999999      9.8380485869912224                       2
   282   1      12.649999999999999      11.067804660365125                       2
   283   1      13.359999999999999      12.297560733739028                       2
   284   1      12.649999999999999       13.52731680711293                       2
   285   1      13.359999999999999      14.757072880486833                       2
   286   1      12.649999999999999      15.986828953860737                       2
   287   1      12.649999999999999      20.905853247356347                       2
   288   1      13.359999999999999       22.13560932073025                       2
   289   1      12.649999999999999      23.365365394104153                       2
   290   1      13.359999999999999      24.595121467478055                       2
   291   1      13.359999999999999      29.514145760973665                       2
   292   1      12.649999999999999      30.743901834347572                       2
   293   1      13.359999999999999      31.973657907721474                       2
   294   1      12.649999999999999       33.20341398109538                       2
   295   1      13.359999999999999      34.433170054469286                       2
   296   1      12.649999999999999      40.581950421338796                       2
   297   1      13.359999999999999      41.811706494712702                       2
   298   1      12.649999999999999      43.041462568086601                       2
   299   1      13.359999999999999      44.271218641460507                       2
   300   1      12.649999999999999      45.500974714834406                       2
   301   1      13.359999999999999      46.730730788208312                       2
   302   1      12.649999999999999      47.960486861582211                       2
   303   1      13.359999999999999      49.190242934956117                       2
   304   1      12.649999999999999      50.419999008330016                       2
   305   1      13.359999999999999      51.649755081703923                       2
   306   1      12.649999999999999      52.879511155077822                       2
   307   1      13.359999999999999      54.109267228451728                       2
   308   1      12.649999999999999      55.339023301825627                       2
   309   1      12.649999999999999      60.258047595321244                       2
   310   1      13.359999999999999       61.48780366869515                       2
   311   1      12.649999999999999      62.717559742069049                       2
   312   1      13.359999999999999      63.947315815442956                       2
   313   1      13.359999999999999      68.866340108938559                       2
   314   1      12.649999999999999      70.096096182312465                       2
   315   1      13.359999999999999      71.325852255686371                       2
   316   1      12.649999999999999      72.555608329060263                       2
   317   1      13.359999999999999      73.785364402434169                       2
   318   1      12.649999999999999      79.934144769303686                       2
   319   1      13.359999999999999      81.163900842677592                       2
   320   1      12.649999999999999      82.393656916051498                       2
   321   1      13.359999999999999      83.623412989425404                       2
   322   1      12.649999999999999      84.853169062799296                       2
   323   1      13.359999999999999      86.082925136173202                       2
   324   1      12.649999999999999      87.312681209547108                       2
   325   1      13.359999999999999      88.542437282921014                       2
   326   1      12.649999999999999      89.772193356294906                       2
   327   1      13.359999999999999      91.001949429668812                       2
   328   1      12.649999999999999      92.231705503042718                       2
   329   1      13.359999999999999      93.461461576416625                       2
   330   1      12.649999999999999      94.691217649790516                       2
   331   1      14.779999999999999      2.4595121467478056                       2
   332   1      15.489999999999998      3.6892682201217086                       2
   333   1      14.779999999999999      4.9190242934956112                       2
   334   1      15.489999999999998      6.1487803668695138                       2
   335   1      14.779999999999999      7.3785364402434173                       2
   336   1      14.779999999999999      12.297560733739028                       2
   337   1      15.489999999999998       13.52731680711293                       2
   338   1      14.779999999999999      14.757072880486835                       2
   339   1      15.489999999999998      15.986828953860737                       2
   340   1      15.489999999999998      20.905853247356347                       2
   341   1      14.779999999999999       22.13560932073025                       2
   342   1      15.489999999999998      23.365365394104153                       2
   343   1      14.779999999999999      24.595121467478055                       2
   344   1      15.489999999999998      25.824877540851958                       2
   345   1      14.779999999999999       27.05463361422586                       2
   346   1      15.489999999999998      28.284389687599763                       2
   347   1      14.779999999999999      29.514145760973669                       2
   348   1      15.489999999999998      30.743901834347572                       2
   349   1      14.779999999999999      31.973657907721474                       2
   350   1      15.489999999999998       33.20341398109538                       2
   351   1      14.779999999999999      34.433170054469279                       2
   352   1      15.489999999999998      35.662926127843185                       2
   353   1      14.779999999999999      41.811706494712695                       2
   354   1      15.489999999999998      43.041462568086601                       2
   355   1      14.779999999999999        44.2712186414605                       2
   356   1      15.489999999999998      45.500974714834406                       2
   357   1      14.779999999999999      46.730730788208305                       2
   358   1      14.779999999999999      51.649755081703915                       2
   359   1      15.489999999999998      52.879511155077822                       2