./lammps_sheet_and_block (written by ASE) 

6680 	 atoms 
1  atom types
0.0      74.969999999999999  xlo xhi
0.0      60.689999999999998  ylo yhi
0.0      14.140000000000001  zlo zhi


Atoms 

     1   1                       0                       0                       7
     2   1                       0      1.7849999999999999      8.7850000000000001
     3   1      1.7849999999999999      1.7849999999999999                       7
     4   1      1.7849999999999999                       0      8.7850000000000001
     5   1      2.6774999999999998     0.89249999999999996      9.6775000000000002
     6   1     0.89249999999999996     0.89249999999999996      7.8925000000000001
     7   1     0.89249999999999996      2.6774999999999998      9.6775000000000002
     8   1      2.6774999999999998      2.6774999999999998      7.8925000000000001
     9   1                       0                       0                   10.57
    10   1                       0      1.7849999999999999                  12.355
    11   1      1.7849999999999999      1.7849999999999999                   10.57
    12   1      1.7849999999999999                       0                  12.355
    13   1      2.6774999999999998     0.89249999999999996      13.247499999999999
    14   1     0.89249999999999996     0.89249999999999996      11.462499999999999
    15   1     0.89249999999999996      2.6774999999999998      13.247499999999999
    16   1      2.6774999999999998      2.6774999999999998      11.462499999999999
    17   1                       0      3.5699999999999998                       7
    18   1                       0      5.3549999999999995      8.7850000000000001
    19   1      1.7849999999999999      5.3549999999999995                       7
    20   1      1.7849999999999999      3.5699999999999998      8.7850000000000001
    21   1      2.6774999999999998      4.4624999999999995      9.6775000000000002
    22   1     0.89249999999999996      4.4624999999999995      7.8925000000000001
    23   1     0.89249999999999996      6.2474999999999996      9.6775000000000002
    24   1      2.6774999999999998      6.2474999999999996      7.8925000000000001
    25   1                       0      3.5699999999999998                   10.57
    26   1                       0      5.3549999999999995                  12.355
    27   1      1.7849999999999999      5.3549999999999995                   10.57
    28   1      1.7849999999999999      3.5699999999999998                  12.355
    29   1      2.6774999999999998      4.4624999999999995      13.247499999999999
    30   1     0.89249999999999996      4.4624999999999995      11.462499999999999
    31   1     0.89249999999999996      6.2474999999999996      13.247499999999999
    32   1      2.6774999999999998      6.2474999999999996      11.462499999999999
    33   1                       0      7.1399999999999997                       7
    34   1                       0      8.9249999999999989      8.7850000000000001
    35   1      1.7849999999999999      8.9249999999999989                       7
    36   1      1.7849999999999999      7.1399999999999997      8.7850000000000001
    37   1      2.6774999999999998      8.0324999999999989      9.6775000000000002
    38   1     0.89249999999999996      8.0324999999999989      7.8925000000000001
    39   1     0.89249999999999996       9.817499999999999      9.6775000000000002
    40   1      2.6774999999999998       9.817499999999999      7.8925000000000001
    41   1                       0      7.1399999999999997                   10.57
    42   1                       0      8.9249999999999989                  12.355
    43   1      1.7849999999999999      8.9249999999999989                   10.57
    44   1      1.7849999999999999      7.1399999999999997                  12.355
    45   1      2.6774999999999998      8.0324999999999989      13.247499999999999
    46   1     0.89249999999999996      8.0324999999999989      11.462499999999999
    47   1     0.89249999999999996       9.817499999999999      13.247499999999999
    48   1      2.6774999999999998       9.817499999999999      11.462499999999999
    49   1                       0      10.709999999999999                       7
    50   1                       0      12.494999999999999      8.7850000000000001
    51   1      1.7849999999999999      12.494999999999999                       7
    52   1      1.7849999999999999      10.709999999999999      8.7850000000000001
    53   1      2.6774999999999998      11.602499999999999      9.6775000000000002
    54   1     0.89249999999999996      11.602499999999999      7.8925000000000001
    55   1     0.89249999999999996      13.387499999999999      9.6775000000000002
    56   1      2.6774999999999998      13.387499999999999      7.8925000000000001
    57   1                       0      10.709999999999999                   10.57
    58   1                       0      12.494999999999999                  12.355
    59   1      1.7849999999999999      12.494999999999999                   10.57
    60   1      1.7849999999999999      10.709999999999999                  12.355
    61   1      2.6774999999999998      11.602499999999999      13.247499999999999
    62   1     0.89249999999999996      11.602499999999999      11.462499999999999
    63   1     0.89249999999999996      13.387499999999999      13.247499999999999
    64   1      2.6774999999999998      13.387499999999999      11.462499999999999
    65   1                       0      14.279999999999999                       7
    66   1                       0      16.064999999999998      8.7850000000000001
    67   1      1.7849999999999999      16.064999999999998                       7
    68   1      1.7849999999999999      14.279999999999999      8.7850000000000001
    69   1      2.6774999999999998      15.172499999999999      9.6775000000000002
    70   1     0.89249999999999996      15.172499999999999      7.8925000000000001
    71   1     0.89249999999999996                 16.9575      9.6775000000000002
    72   1      2.6774999999999998                 16.9575      7.8925000000000001
    73   1                       0      14.279999999999999                   10.57
    74   1                       0      16.064999999999998                  12.355
    75   1      1.7849999999999999      16.064999999999998                   10.57
    76   1      1.7849999999999999      14.279999999999999                  12.355
    77   1      2.6774999999999998      15.172499999999999      13.247499999999999
    78   1     0.89249999999999996      15.172499999999999      11.462499999999999
    79   1     0.89249999999999996                 16.9575      13.247499999999999
    80   1      2.6774999999999998                 16.9575      11.462499999999999
    81   1                       0      17.849999999999998                       7
    82   1                       0      19.634999999999998      8.7850000000000001
    83   1      1.7849999999999999      19.634999999999998                       7
    84   1      1.7849999999999999      17.849999999999998      8.7850000000000001
    85   1      2.6774999999999998      18.742499999999996      9.6775000000000002
    86   1     0.89249999999999996      18.742499999999996      7.8925000000000001
    87   1     0.89249999999999996      20.527499999999996      9.6775000000000002
    88   1      2.6774999999999998      20.527499999999996      7.8925000000000001
    89   1                       0      17.849999999999998                   10.57
    90   1                       0      19.634999999999998                  12.355
    91   1      1.7849999999999999      19.634999999999998                   10.57
    92   1      1.7849999999999999      17.849999999999998                  12.355
    93   1      2.6774999999999998      18.742499999999996      13.247499999999999
    94   1     0.89249999999999996      18.742499999999996      11.462499999999999
    95   1     0.89249999999999996      20.527499999999996      13.247499999999999
    96   1      2.6774999999999998      20.527499999999996      11.462499999999999
    97   1                       0      21.419999999999998                       7
    98   1                       0      23.204999999999998      8.7850000000000001
    99   1      1.7849999999999999      23.204999999999998                       7
   100   1      1.7849999999999999      21.419999999999998      8.7850000000000001
   101   1      2.6774999999999998      22.312499999999996      9.6775000000000002
   102   1     0.89249999999999996      22.312499999999996      7.8925000000000001
   103   1     0.89249999999999996      24.097499999999997      9.6775000000000002
   104   1      2.6774999999999998      24.097499999999997      7.8925000000000001
   105   1                       0      21.419999999999998                   10.57
   106   1                       0      23.204999999999998                  12.355
   107   1      1.7849999999999999      23.204999999999998                   10.57
   108   1      1.7849999999999999      21.419999999999998                  12.355
   109   1      2.6774999999999998      22.312499999999996      13.247499999999999
   110   1     0.89249999999999996      22.312499999999996      11.462499999999999
   111   1     0.89249999999999996      24.097499999999997      13.247499999999999
   112   1      2.6774999999999998      24.097499999999997      11.462499999999999
   113   1                       0      24.989999999999998                       7
   114   1                       0      26.774999999999999      8.7850000000000001
   115   1      1.7849999999999999      26.774999999999999                       7
   116   1      1.7849999999999999      24.989999999999998      8.7850000000000001
   117   1      2.6774999999999998      25.882499999999997      9.6775000000000002
   118   1     0.89249999999999996      25.882499999999997      7.8925000000000001
   119   1     0.89249999999999996      27.667499999999997      9.6775000000000002
   120   1      2.6774999999999998      27.667499999999997      7.8925000000000001
   121   1                       0      24.989999999999998                   10.57
   122   1                       0      26.774999999999999                  12.355
   123   1      1.7849999999999999      26.774999999999999                   10.57
   124   1      1.7849999999999999      24.989999999999998                  12.355
   125   1      2.6774999999999998      25.882499999999997      13.247499999999999
   126   1     0.89249999999999996      25.882499999999997      11.462499999999999
   127   1     0.89249999999999996      27.667499999999997      13.247499999999999
   128   1      2.6774999999999998      27.667499999999997      11.462499999999999
   129   1                       0      28.559999999999999                       7
   130   1                       0      30.344999999999999      8.7850000000000001
   131   1      1.7849999999999999      30.344999999999999                       7
   132   1      1.7849999999999999      28.559999999999999      8.7850000000000001
   133   1      2.6774999999999998      29.452499999999997      9.6775000000000002
   134   1     0.89249999999999996      29.452499999999997      7.8925000000000001
   135   1     0.89249999999999996      31.237499999999997      9.6775000000000002
   136   1      2.6774999999999998      31.237499999999997      7.8925000000000001
   137   1                       0      28.559999999999999                   10.57
   138   1                       0      30.344999999999999                  12.355
   139   1      1.7849999999999999      30.344999999999999                   10.57
   140   1      1.7849999999999999      28.559999999999999                  12.355
   141   1      2.6774999999999998      29.452499999999997      13.247499999999999
   142   1     0.89249999999999996      29.452499999999997      11.462499999999999
   143   1     0.89249999999999996      31.237499999999997      13.247499999999999
   144   1      2.6774999999999998      31.237499999999997      11.462499999999999
   145   1                       0      32.129999999999995                       7
   146   1                       0      33.914999999999992      8.7850000000000001
   147   1      1.7849999999999999      33.914999999999992                       7
   148   1      1.7849999999999999      32.129999999999995      8.7850000000000001
   149   1      2.6774999999999998      33.022499999999994      9.6775000000000002
   150   1     0.89249999999999996      33.022499999999994      7.8925000000000001
   151   1     0.89249999999999996      34.807499999999997      9.6775000000000002
   152   1      2.6774999999999998      34.807499999999997      7.8925000000000001
   153   1                       0      32.129999999999995                   10.57
   154   1                       0      33.914999999999992                  12.355
   155   1      1.7849999999999999      33.914999999999992                   10.57
   156   1      1.7849999999999999      32.129999999999995                  12.355
   157   1      2.6774999999999998      33.022499999999994      13.247499999999999
   158   1     0.89249999999999996      33.022499999999994      11.462499999999999
   159   1     0.89249999999999996      34.807499999999997      13.247499999999999
   160   1      2.6774999999999998      34.807499999999997      11.462499999999999
   161   1                       0      35.699999999999996                       7
   162   1                       0      37.484999999999992      8.7850000000000001
   163   1      1.7849999999999999      37.484999999999992                       7
   164   1      1.7849999999999999      35.699999999999996      8.7850000000000001
   165   1      2.6774999999999998      36.592499999999994      9.6775000000000002
   166   1     0.89249999999999996      36.592499999999994      7.8925000000000001
   167   1     0.89249999999999996      38.377499999999998      9.6775000000000002
   168   1      2.6774999999999998      38.377499999999998      7.8925000000000001
   169   1                       0      35.699999999999996                   10.57
   170   1                       0      37.484999999999992                  12.355
   171   1      1.7849999999999999      37.484999999999992                   10.57
   172   1      1.7849999999999999      35.699999999999996                  12.355
   173   1      2.6774999999999998      36.592499999999994      13.247499999999999
   174   1     0.89249999999999996      36.592499999999994      11.462499999999999
   175   1     0.89249999999999996      38.377499999999998      13.247499999999999
   176   1      2.6774999999999998      38.377499999999998      11.462499999999999
   177   1                       0      39.269999999999996                       7
   178   1                       0      41.054999999999993      8.7850000000000001
   179   1      1.7849999999999999      41.054999999999993                       7
   180   1      1.7849999999999999      39.269999999999996      8.7850000000000001
   181   1      2.6774999999999998      40.162499999999994      9.6775000000000002
   182   1     0.89249999999999996      40.162499999999994      7.8925000000000001
   183   1     0.89249999999999996      41.947499999999998      9.6775000000000002
   184   1      2.6774999999999998      41.947499999999998      7.8925000000000001
   185   1                       0      39.269999999999996                   10.57
   186   1                       0      41.054999999999993                  12.355
   187   1      1.7849999999999999      41.054999999999993                   10.57
   188   1      1.7849999999999999      39.269999999999996                  12.355
   189   1      2.6774999999999998      40.162499999999994      13.247499999999999
   190   1     0.89249999999999996      40.162499999999994      11.462499999999999
   191   1     0.89249999999999996      41.947499999999998      13.247499999999999
   192   1      2.6774999999999998      41.947499999999998      11.462499999999999
   193   1                       0      42.839999999999996                       7
   194   1                       0      44.624999999999993      8.7850000000000001
   195   1      1.7849999999999999      44.624999999999993                       7
   196   1      1.7849999999999999      42.839999999999996      8.7850000000000001
   197   1      2.6774999999999998      43.732499999999995      9.6775000000000002
   198   1     0.89249999999999996      43.732499999999995      7.8925000000000001
   199   1     0.89249999999999996      45.517499999999998      9.6775000000000002
   200   1      2.6774999999999998      45.517499999999998      7.8925000000000001
   201   1                       0      42.839999999999996                   10.57
   202   1                       0      44.624999999999993                  12.355
   203   1      1.7849999999999999      44.624999999999993                   10.57
   204   1      1.7849999999999999      42.839999999999996                  12.355
   205   1      2.6774999999999998      43.732499999999995      13.247499999999999
   206   1     0.89249999999999996      43.732499999999995      11.462499999999999
   207   1     0.89249999999999996      45.517499999999998      13.247499999999999
   208   1      2.6774999999999998      45.517499999999998      11.462499999999999
   209   1                       0      46.409999999999997                       7
   210   1                       0      48.194999999999993      8.7850000000000001
   211   1      1.7849999999999999      48.194999999999993                       7
   212   1      1.7849999999999999      46.409999999999997      8.7850000000000001
   213   1      2.6774999999999998      47.302499999999995      9.6775000000000002
   214   1     0.89249999999999996      47.302499999999995      7.8925000000000001
   215   1     0.89249999999999996      49.087499999999999      9.6775000000000002
   216   1      2.6774999999999998      49.087499999999999      7.8925000000000001
   217   1                       0      46.409999999999997                   10.57
   218   1                       0      48.194999999999993                  12.355
   219   1      1.7849999999999999      48.194999999999993                   10.57
   220   1      1.7849999999999999      46.409999999999997                  12.355
   221   1      2.6774999999999998      47.302499999999995      13.247499999999999
   222   1     0.89249999999999996      47.302499999999995      11.462499999999999
   223   1     0.89249999999999996      49.087499999999999      13.247499999999999
   224   1      2.6774999999999998      49.087499999999999      11.462499999999999
   225   1                       0      49.979999999999997                       7
   226   1                       0      51.764999999999993      8.7850000000000001
   227   1      1.7849999999999999      51.764999999999993                       7
   228   1      1.7849999999999999      49.979999999999997      8.7850000000000001
   229   1      2.6774999999999998      50.872499999999995      9.6775000000000002
   230   1     0.89249999999999996      50.872499999999995      7.8925000000000001
   231   1     0.89249999999999996      52.657499999999999      9.6775000000000002
   232   1      2.6774999999999998      52.657499999999999      7.8925000000000001
   233   1                       0      49.979999999999997                   10.57
   234   1                       0      51.764999999999993                  12.355
   235   1      1.7849999999999999      51.764999999999993                   10.57
   236   1      1.7849999999999999      49.979999999999997                  12.355
   237   1      2.6774999999999998      50.872499999999995      13.247499999999999
   238   1     0.89249999999999996      50.872499999999995      11.462499999999999
   239   1     0.89249999999999996      52.657499999999999      13.247499999999999
   240   1      2.6774999999999998      52.657499999999999      11.462499999999999
   241   1                       0      53.549999999999997                       7
   242   1                       0      55.334999999999994      8.7850000000000001
   243   1      1.7849999999999999      55.334999999999994                       7
   244   1      1.7849999999999999      53.549999999999997      8.7850000000000001
   245   1      2.6774999999999998      54.442499999999995      9.6775000000000002
   246   1     0.89249999999999996      54.442499999999995      7.8925000000000001
   247   1     0.89249999999999996      56.227499999999999      9.6775000000000002
   248   1      2.6774999999999998      56.227499999999999      7.8925000000000001
   249   1                       0      53.549999999999997                   10.57
   250   1                       0      55.334999999999994                  12.355
   251   1      1.7849999999999999      55.334999999999994                   10.57
   252   1      1.7849999999999999      53.549999999999997                  12.355
   253   1      2.6774999999999998      54.442499999999995      13.247499999999999
   254   1     0.89249999999999996      54.442499999999995      11.462499999999999
   255   1     0.89249999999999996      56.227499999999999      13.247499999999999
   256   1      2.6774999999999998      56.227499999999999      11.462499999999999
   257   1                       0      57.119999999999997                       7
   258   1                       0      58.904999999999994      8.7850000000000001
   259   1      1.7849999999999999      58.904999999999994                       7
   260   1      1.7849999999999999      57.119999999999997      8.7850000000000001
   261   1      2.6774999999999998      58.012499999999996      9.6775000000000002
   262   1     0.89249999999999996      58.012499999999996      7.8925000000000001
   263   1     0.89249999999999996      59.797499999999999      9.6775000000000002
   264   1      2.6774999999999998      59.797499999999999      7.8925000000000001
   265   1                       0      57.119999999999997                   10.57
   266   1                       0      58.904999999999994                  12.355
   267   1      1.7849999999999999      58.904999999999994                   10.57
   268   1      1.7849999999999999      57.119999999999997                  12.355
   269   1      2.6774999999999998      58.012499999999996      13.247499999999999
   270   1     0.89249999999999996      58.012499999999996      11.462499999999999
   271   1     0.89249999999999996      59.797499999999999      13.247499999999999
   272   1      2.6774999999999998      59.797499999999999      11.462499999999999
   273   1      3.5699999999999998                       0                       7
   274   1      3.5699999999999998      1.7849999999999999      8.7850000000000001
   275   1      5.3549999999999995      1.7849999999999999                       7
   276   1      5.3549999999999995                       0      8.7850000000000001
   277   1      6.2474999999999996     0.89249999999999996      9.6775000000000002
   278   1      4.4624999999999995     0.89249999999999996      7.8925000000000001
   279   1      4.4624999999999995      2.6774999999999998      9.6775000000000002
   280   1      6.2474999999999996      2.6774999999999998      7.8925000000000001
   281   1      3.5699999999999998                       0                   10.57
   282   1      3.5699999999999998      1.7849999999999999                  12.355
   283   1      5.3549999999999995      1.7849999999999999                   10.57
   284   1      5.3549999999999995                       0                  12.355
   285   1      6.2474999999999996     0.89249999999999996      13.247499999999999
   286   1      4.4624999999999995     0.89249999999999996      11.462499999999999
   287   1      4.4624999999999995      2.6774999999999998      13.247499999999999
   288   1      6.2474999999999996      2.6774999999999998      11.462499999999999
   289   1      3.5699999999999998      3.5699999999999998                       7
   290   1      3.5699999999999998      5.3549999999999995      8.7850000000000001
   291   1      5.3549999999999995      5.3549999999999995                       7
   292   1      5.3549999999999995      3.5699999999999998      8.7850000000000001
   293   1      6.2474999999999996      4.4624999999999995      9.6775000000000002
   294   1      4.4624999999999995      4.4624999999999995      7.8925000000000001
   295   1      4.4624999999999995      6.2474999999999996      9.6775000000000002
   296   1      6.2474999999999996      6.2474999999999996      7.8925000000000001
   297   1      3.5699999999999998      3.5699999999999998                   10.57
   298   1      3.5699999999999998      5.3549999999999995                  12.355
   299   1      5.3549999999999995      5.3549999999999995                   10.57
   300   1      5.3549999999999995      3.5699999999999998                  12.355
   301   1      6.2474999999999996      4.4624999999999995      13.247499999999999
   302   1      4.4624999999999995      4.4624999999999995      11.462499999999999
   303   1      4.4624999999999995      6.2474999999999996      13.247499999999999
   304   1      6.2474999999999996      6.2474999999999996      11.462499999999999
   305   1      3.5699999999999998      7.1399999999999997                       7
   306   1      3.5699999999999998      8.9249999999999989      8.7850000000000001
   307   1      5.3549999999999995      8.9249999999999989                       7
   308   1      5.3549999999999995      7.1399999999999997      8.7850000000000001
   309   1      6.2474999999999996      8.0324999999999989      9.6775000000000002
   310   1      4.4624999999999995      8.0324999999999989      7.8925000000000001
   311   1      4.4624999999999995       9.817499999999999      9.6775000000000002
   312   1      6.2474999999999996       9.817499999999999      7.8925000000000001
   313   1      3.5699999999999998      7.1399999999999997                   10.57
   314   1      3.5699999999999998      8.9249999999999989                  12.355
   315   1      5.3549999999999995      8.9249999999999989                   10.57
   316   1      5.3549999999999995      7.1399999999999997                  12.355
   317   1      6.2474999999999996      8.0324999999999989      13.247499999999999
   318   1      4.4624999999999995      8.0324999999999989      11.462499999999999
   319   1      4.4624999999999995       9.817499999999999      13.247499999999999
   320   1      6.2474999999999996       9.817499999999999      11.462499999999999
   321   1      3.5699999999999998      10.709999999999999                       7
   322   1      3.5699999999999998      12.494999999999999      8.7850000000000001
   323   1      5.3549999999999995      12.494999999999999                       7
   324   1      5.3549999999999995      10.709999999999999      8.7850000000000001
   325   1      6.2474999999999996      11.602499999999999      9.6775000000000002
   326   1      4.4624999999999995      11.602499999999999      7.8925000000000001
   327   1      4.4624999999999995      13.387499999999999      9.6775000000000002
   328   1      6.2474999999999996      13.387499999999999      7.8925000000000001
   329   1      3.5699999999999998      10.709999999999999                   10.57
   330   1      3.5699999999999998      12.494999999999999                  12.355
   331   1      5.3549999999999995      12.494999999999999                   10.57
   332   1      5.3549999999999995      10.709999999999999                  12.355
   333   1      6.2474999999999996      11.602499999999999      13.247499999999999
   334   1      4.4624999999999995      11.602499999999999      11.462499999999999
   335   1      4.4624999999999995      13.387499999999999      13.247499999999999
   336   1      6.2474999999999996      13.387499999999999      11.462499999999999
   337   1      3.5699999999999998      14.279999999999999                       7
   338   1      3.5699999999999998      16.064999999999998      8.7850000000000001
   339   1      5.3549999999999995      16.064999999999998                       7
   340   1      5.3549999999999995      14.279999999999999      8.7850000000000001
   341   1      6.2474999999999996      15.172499999999999      9.6775000000000002
   342   1      4.4624999999999995      15.172499999999999      7.8925000000000001
   343   1      4.4624999999999995                 16.9575      9.6775000000000002
   344   1      6.2474999999999996                 16.9575      7.8925000000000001
   345   1      3.5699999999999998      14.279999999999999                   10.57
   346   1      3.5699999999999998      16.064999999999998                  12.355
   347   1      5.3549999999999995      16.064999999999998                   10.57
   348   1      5.3549999999999995      14.279999999999999                  12.355
   349   1      6.2474999999999996      15.172499999999999      13.247499999999999
   350   1      4.4624999999999995      15.172499999999999      11.462499999999999
   351   1      4.4624999999999995                 16.9575      13.247499999999999
   352   1      6.2474999999999996                 16.9575      11.462499999999999
   353   1      3.5699999999999998      17.849999999999998                       7
   354   1      3.5699999999999998      19.634999999999998      8.7850000000000001
   355   1      5.3549999999999995      19.634999999999998                       7
   356   1      5.3549999999999995      17.849999999999998      8.7850000000000001
   357   1      6.2474999999999996      18.742499999999996      9.6775000000000002
   358   1      4.4624999999999995      18.742499999999996      7.8925000000000001
   359   1      4.4624999999999995      20.527499999999996      9.6775000000000002