LAMMPS data file via write_data, version 23 Jun 2022, timestep = 0

23 atoms
2 atom types

-0.0005586441204678818 5.5864412046788186 xlo xhi
-0.0009676000000000001 9.676 ylo yhi
-0.0001003885 1.003885 zlo zhi

Masses

1 12.0107
2 12.0107

Atoms # atomic

1 1 0 0 0 0 0 0
2 1 0.6983051505848523 1.2095 0 0 0 0
3 1 0 2.419 0 0 0 0
4 1 0.6983051505848523 3.6285 0 0 0 0
5 1 0 4.838 0 0 0 0
6 1 0.6983051505848523 6.0475 0 0 0 0
7 1 0 7.257 0 0 0 0
8 1 0.6983051505848523 8.4665 0 0 0 0
9 1 2.094915451754557 1.2095 0 0 0 0
10 1 2.7932206023394093 2.419 0 0 0 0
11 1 2.094915451754557 3.6285 0 0 0 0
12 1 2.7932206023394093 4.838 0 0 0 0
13 1 2.094915451754557 6.0475 0 0 0 0
14 1 2.7932206023394093 7.257 0 0 0 0
15 1 2.094915451754557 8.4665 0 0 0 0
16 1 4.189830903509114 0 0 0 0 0
17 1 4.888136054093967 1.2095 0 0 0 0
18 1 4.189830903509114 2.419 0 0 0 0
19 1 4.888136054093967 3.6285 0 0 0 0
20 1 4.189830903509114 4.838 0 0 0 0
21 1 4.888136054093967 6.0475 0 0 0 0
22 1 4.189830903509114 7.257 0 0 0 0
23 1 4.888136054093967 8.4665 0 0 0 0





Velocities

1 -1.1277594707591851 -0.07001256210587674 0.2179085110845035
2 0.40129515917656844 -0.05234589743288282 0.1109925666173987
3 -0.08038067389669504 0.2569435076353454 -1.0547283818625293
4 -1.0610160985717194 -0.35523980142232114 -1.0476220836474261
5 0.5111075487232404 0.7417939633049253 -0.1207750275151457
6 0.09774316701254737 -0.40008318502625495 0.9436335432899926
7 1.3755245985015698 0.9829135202959601 0.43643148701828716
8 -0.5027386749915072 0.7614624795901391 0.5423315499095747
9 0.5848894318678618 0.07186134297072853 0.004496666416534073
10 0.008523848029851832 0.20966364805171508 0.2000049959717147
11 0.8252170901132646 -0.6189058101967017 0.54169181676868
12 0.244087740244784 -0.04034401437275777 0.22670969499513852
13 0.9271847295531864 -0.9288943277904325 -0.385696614592619
14 -0.08333328377331607 -0.029292407272770826 -0.8310449068992365
15 -0.5915226859509828 -0.11384381319807275 0.09255927723819993
16 -1.4721057177368948 -0.9224107711536859 -0.18500391681866374
17 0.20291095347865432 0.0064762174969259095 -0.05846426117015457
18 0.09167756383487397 -0.14863022682636773 -0.14026035516084034
19 0.5034411064548995 -0.15742096506884165 0.19964088338711475
20 0.2922905081043518 -0.1976541656112455 0.6301866463118003
21 -0.2645663073987022 0.8421710459057078 -0.4234315133055064
22 0.43624421912342276 0.13775952119347668 0.10743519936663055
23 -1.3187147511400732 0.024032701033285107 -0.006995777403445666
