./lammps_sheet (written by ASE) 

54 	 atoms 
1  atom types
0.0                   13.23  xlo xhi
0.0      14.757072880486835  ylo yhi
0.0                       4  zlo zhi


Atoms 

     1   1                       2                       0                       2
     2   1                       2      4.9190242934956112                       2
     3   1                    2.71      6.1487803668695138                       2
     4   1                       2      7.3785364402434173                       2
     5   1                    2.71      8.6082925136173198                       2
     6   1                       2      9.8380485869912224                       2
     7   1                    2.71      11.067804660365125                       2
     8   1                       2      12.297560733739028                       2
     9   1                    2.71       13.52731680711293                       2
    10   1      4.8399999999999999 -1.7763568394002505e-15                       2
    11   1      4.8399999999999999      4.9190242934956112                       2
    12   1      4.1299999999999999      6.1487803668695138                       2
    13   1      4.8399999999999999      7.3785364402434164                       2
    14   1      4.1299999999999999      8.6082925136173198                       2
    15   1      4.8399999999999999      9.8380485869912224                       2
    16   1      4.1299999999999999      11.067804660365125                       2
    17   1      4.8399999999999999      12.297560733739028                       2
    18   1      4.1299999999999999       13.52731680711293                       2
    19   1      6.2599999999999998                       0                       2
    20   1      6.9699999999999998      1.2297560733739028                       2
    21   1      6.2599999999999998      2.4595121467478056                       2
    22   1      6.9699999999999998      3.6892682201217086                       2
    23   1      6.2599999999999998      4.9190242934956112                       2
    24   1      6.9699999999999998      6.1487803668695138                       2
    25   1      6.2599999999999998      7.3785364402434173                       2
    26   1      6.9699999999999998      8.6082925136173198                       2
    27   1      6.2599999999999998      9.8380485869912224                       2
    28   1      6.9699999999999998      11.067804660365125                       2
    29   1      6.2599999999999998      12.297560733739028                       2
    30   1      6.9699999999999998       13.52731680711293                       2
    31   1      9.0999999999999996 -1.7763568394002505e-15                       2
    32   1      8.3900000000000006      1.2297560733739028                       2
    33   1      9.0999999999999996      2.4595121467478056                       2
    34   1      8.3900000000000006      3.6892682201217086                       2
    35   1      9.0999999999999996      4.9190242934956112                       2
    36   1      8.3900000000000006      6.1487803668695138                       2
    37   1      9.0999999999999996      7.3785364402434164                       2
    38   1      8.3900000000000006      8.6082925136173198                       2
    39   1      9.0999999999999996      9.8380485869912224                       2
    40   1      8.3900000000000006      11.067804660365125                       2
    41   1      9.0999999999999996      12.297560733739028                       2
    42   1      8.3900000000000006       13.52731680711293                       2
    43   1                   10.52                       0                       2
    44   1                   11.23      1.2297560733739028                       2
    45   1                   10.52      2.4595121467478056                       2
    46   1                   11.23      3.6892682201217086                       2
    47   1                   10.52      4.9190242934956112                       2
    48   1                   11.23      6.1487803668695138                       2
    49   1                   10.52      7.3785364402434173                       2
    50   1                   11.23      8.6082925136173198                       2
    51   1                   10.52      9.8380485869912224                       2
    52   1                   11.23      11.067804660365125                       2
    53   1                   10.52      12.297560733739028                       2
    54   1                   11.23       13.52731680711293                       2
