./lammps_sheet (written by ASE) 

20 	 atoms 
1  atom types
0.0      6.9190242934956112  xlo xhi
0.0                       2  ylo yhi
0.0      8.5199999999999996  zlo zhi


Atoms 

     1   1      4.6892682201217086                       1                       0
     2   1      5.9190242934956112                       1     0.70999999999999996
     3   1      5.9190242934956112                       1      2.1299999999999999
     4   1      4.6892682201217086                       1      2.8399999999999999
     5   1      4.6892682201217086                       1      4.2599999999999998
     6   1      5.9190242934956112                       1      4.9699999999999998
     7   1      5.9190242934956112                       1      6.3899999999999997
     8   1      4.6892682201217086                       1      7.0999999999999996
     9   1       2.229756073373903                       1                       0
    10   1       3.459512146747806                       1     0.70999999999999996
    11   1       3.459512146747806                       1      2.1299999999999999
    12   1       2.229756073373903                       1      2.8399999999999999
    13   1       2.229756073373903                       1      4.2599999999999998
    14   1       3.459512146747806                       1      4.9699999999999998
    15   1       3.459512146747806                       1      6.3899999999999997
    16   1       2.229756073373903                       1      7.0999999999999996
    17   1                       1                       1     0.70999999999999996
    18   1                       1                       1      2.1299999999999999
    19   1                       1                       1      4.9699999999999998
    20   1                       1                       1      6.3899999999999997
