./lammps_sheet (written by ASE) 

40 	 atoms 
1  atom types
0.0      5.6892682201217086  xlo xhi
0.0      21.299999999999997  ylo yhi
0.0                       2  zlo zhi


Atoms 

     1   1                       1                       0                       1
     2   1      2.2297560733739026     0.70999999999999996                       1
     3   1      2.2297560733739026      2.1299999999999999                       1
     4   1                       1      2.8399999999999999                       1
     5   1                       1      4.2599999999999998                       1
     6   1      2.2297560733739026      4.9699999999999998                       1
     7   1      2.2297560733739026      6.3899999999999997                       1
     8   1                       1      7.0999999999999996                       1
     9   1                       1      8.5199999999999996                       1
    10   1      2.2297560733739026      9.2300000000000004                       1
    11   1      2.2297560733739026      10.649999999999999                       1
    12   1                       1      11.359999999999999                       1
    13   1                       1      12.779999999999999                       1
    14   1      2.2297560733739026      13.489999999999998                       1
    15   1      2.2297560733739026                   14.91                       1
    16   1                       1      15.619999999999999                       1
    17   1                       1      17.039999999999999                       1
    18   1      2.2297560733739026                   17.75                       1
    19   1      2.2297560733739026      19.169999999999998                       1
    20   1                       1      19.879999999999999                       1
    21   1      3.4595121467478056                       0                       1
    22   1      4.6892682201217086     0.70999999999999996                       1
    23   1      4.6892682201217086      2.1299999999999999                       1
    24   1      3.4595121467478056      2.8399999999999999                       1
    25   1      3.4595121467478056      4.2599999999999998                       1
    26   1      4.6892682201217086      4.9699999999999998                       1
    27   1      4.6892682201217086      6.3899999999999997                       1
    28   1      3.4595121467478056      7.0999999999999996                       1
    29   1      3.4595121467478056      8.5199999999999996                       1
    30   1      4.6892682201217086      9.2300000000000004                       1
    31   1      4.6892682201217086      10.649999999999999                       1
    32   1      3.4595121467478056      11.359999999999999                       1
    33   1      3.4595121467478056      12.779999999999999                       1
    34   1      4.6892682201217086      13.489999999999998                       1
    35   1      4.6892682201217086                   14.91                       1
    36   1      3.4595121467478056      15.619999999999999                       1
    37   1      3.4595121467478056      17.039999999999999                       1
    38   1      4.6892682201217086                   17.75                       1
    39   1      4.6892682201217086      19.169999999999998                       1
    40   1      3.4595121467478056      19.879999999999999                       1
