./lammps_sheet (written by ASE) 

20 	 atoms 
1  atom types
0.0      6.9190242934956112  xlo xhi
0.0                       2  ylo yhi
0.0      8.5199999999999996  zlo zhi


Atoms 

     1   1      4.6892682201217086                       0                       1
     2   1      5.9190242934956112     0.70999999999999996                       1
     3   1      5.9190242934956112      2.1299999999999999                       1
     4   1      4.6892682201217086      2.8399999999999999                       1
     5   1      4.6892682201217086      4.2599999999999998                       1
     6   1      5.9190242934956112      4.9699999999999998                       1
     7   1      5.9190242934956112      6.3899999999999997                       1
     8   1      4.6892682201217086      7.0999999999999996                       1
     9   1       2.229756073373903                       0                       1
    10   1       3.459512146747806     0.70999999999999996                       1
    11   1       3.459512146747806      2.1299999999999999                       1
    12   1       2.229756073373903      2.8399999999999999                       1
    13   1       2.229756073373903      4.2599999999999998                       1
    14   1       3.459512146747806      4.9699999999999998                       1
    15   1       3.459512146747806      6.3899999999999997                       1
    16   1       2.229756073373903      7.0999999999999996                       1
    17   1                       1     0.70999999999999996                       1
    18   1                       1      2.1299999999999999                       1
    19   1                       1      4.9699999999999998                       1
    20   1                       1      6.3899999999999997                       1
