./lammps_sheet_and_block (written by ASE) 

4536 	 atoms 
1  atom types
0.0      74.969999999999999  xlo xhi
0.0      96.390000000000001  ylo yhi
0.0                   15.57  zlo zhi


Atoms 

     1   1                       0                       0                      12
     2   1                       0      1.7849999999999999                  13.785
     3   1      1.7849999999999999      1.7849999999999999                      12
     4   1      1.7849999999999999                       0                  13.785
     5   1      2.6774999999999998     0.89249999999999996                 14.6775
     6   1     0.89249999999999996     0.89249999999999996                 12.8925
     7   1     0.89249999999999996      2.6774999999999998                 14.6775
     8   1      2.6774999999999998      2.6774999999999998                 12.8925
     9   1                       0      3.5699999999999998                      12
    10   1                       0      5.3549999999999995                  13.785
    11   1      1.7849999999999999      5.3549999999999995                      12
    12   1      1.7849999999999999      3.5699999999999998                  13.785
    13   1      2.6774999999999998      4.4624999999999995                 14.6775
    14   1     0.89249999999999996      4.4624999999999995                 12.8925
    15   1     0.89249999999999996      6.2474999999999996                 14.6775
    16   1      2.6774999999999998      6.2474999999999996                 12.8925
    17   1                       0      7.1399999999999997                      12
    18   1                       0      8.9249999999999989                  13.785
    19   1      1.7849999999999999      8.9249999999999989                      12
    20   1      1.7849999999999999      7.1399999999999997                  13.785
    21   1      2.6774999999999998      8.0324999999999989                 14.6775
    22   1     0.89249999999999996      8.0324999999999989                 12.8925
    23   1     0.89249999999999996       9.817499999999999                 14.6775
    24   1      2.6774999999999998       9.817499999999999                 12.8925
    25   1                       0      10.709999999999999                      12
    26   1                       0      12.494999999999999                  13.785
    27   1      1.7849999999999999      12.494999999999999                      12
    28   1      1.7849999999999999      10.709999999999999                  13.785
    29   1      2.6774999999999998      11.602499999999999                 14.6775
    30   1     0.89249999999999996      11.602499999999999                 12.8925
    31   1     0.89249999999999996      13.387499999999999                 14.6775
    32   1      2.6774999999999998      13.387499999999999                 12.8925
    33   1                       0      14.279999999999999                      12
    34   1                       0      16.064999999999998                  13.785
    35   1      1.7849999999999999      16.064999999999998                      12
    36   1      1.7849999999999999      14.279999999999999                  13.785
    37   1      2.6774999999999998      15.172499999999999                 14.6775
    38   1     0.89249999999999996      15.172499999999999                 12.8925
    39   1     0.89249999999999996                 16.9575                 14.6775
    40   1      2.6774999999999998                 16.9575                 12.8925
    41   1                       0      17.849999999999998                      12
    42   1                       0      19.634999999999998                  13.785
    43   1      1.7849999999999999      19.634999999999998                      12
    44   1      1.7849999999999999      17.849999999999998                  13.785
    45   1      2.6774999999999998      18.742499999999996                 14.6775
    46   1     0.89249999999999996      18.742499999999996                 12.8925
    47   1     0.89249999999999996      20.527499999999996                 14.6775
    48   1      2.6774999999999998      20.527499999999996                 12.8925
    49   1                       0      21.419999999999998                      12
    50   1                       0      23.204999999999998                  13.785
    51   1      1.7849999999999999      23.204999999999998                      12
    52   1      1.7849999999999999      21.419999999999998                  13.785
    53   1      2.6774999999999998      22.312499999999996                 14.6775
    54   1     0.89249999999999996      22.312499999999996                 12.8925
    55   1     0.89249999999999996      24.097499999999997                 14.6775
    56   1      2.6774999999999998      24.097499999999997                 12.8925
    57   1                       0      24.989999999999998                      12
    58   1                       0      26.774999999999999                  13.785
    59   1      1.7849999999999999      26.774999999999999                      12
    60   1      1.7849999999999999      24.989999999999998                  13.785
    61   1      2.6774999999999998      25.882499999999997                 14.6775
    62   1     0.89249999999999996      25.882499999999997                 12.8925
    63   1     0.89249999999999996      27.667499999999997                 14.6775
    64   1      2.6774999999999998      27.667499999999997                 12.8925
    65   1                       0      28.559999999999999                      12
    66   1                       0      30.344999999999999                  13.785
    67   1      1.7849999999999999      30.344999999999999                      12
    68   1      1.7849999999999999      28.559999999999999                  13.785
    69   1      2.6774999999999998      29.452499999999997                 14.6775
    70   1     0.89249999999999996      29.452499999999997                 12.8925
    71   1     0.89249999999999996      31.237499999999997                 14.6775
    72   1      2.6774999999999998      31.237499999999997                 12.8925
    73   1                       0      32.129999999999995                      12
    74   1                       0      33.914999999999992                  13.785
    75   1      1.7849999999999999      33.914999999999992                      12
    76   1      1.7849999999999999      32.129999999999995                  13.785
    77   1      2.6774999999999998      33.022499999999994                 14.6775
    78   1     0.89249999999999996      33.022499999999994                 12.8925
    79   1     0.89249999999999996      34.807499999999997                 14.6775
    80   1      2.6774999999999998      34.807499999999997                 12.8925
    81   1                       0      35.699999999999996                      12
    82   1                       0      37.484999999999992                  13.785
    83   1      1.7849999999999999      37.484999999999992                      12
    84   1      1.7849999999999999      35.699999999999996                  13.785
    85   1      2.6774999999999998      36.592499999999994                 14.6775
    86   1     0.89249999999999996      36.592499999999994                 12.8925
    87   1     0.89249999999999996      38.377499999999998                 14.6775
    88   1      2.6774999999999998      38.377499999999998                 12.8925
    89   1                       0      39.269999999999996                      12
    90   1                       0      41.054999999999993                  13.785
    91   1      1.7849999999999999      41.054999999999993                      12
    92   1      1.7849999999999999      39.269999999999996                  13.785
    93   1      2.6774999999999998      40.162499999999994                 14.6775
    94   1     0.89249999999999996      40.162499999999994                 12.8925
    95   1     0.89249999999999996      41.947499999999998                 14.6775
    96   1      2.6774999999999998      41.947499999999998                 12.8925
    97   1                       0      42.839999999999996                      12
    98   1                       0      44.624999999999993                  13.785
    99   1      1.7849999999999999      44.624999999999993                      12
   100   1      1.7849999999999999      42.839999999999996                  13.785
   101   1      2.6774999999999998      43.732499999999995                 14.6775
   102   1     0.89249999999999996      43.732499999999995                 12.8925
   103   1     0.89249999999999996      45.517499999999998                 14.6775
   104   1      2.6774999999999998      45.517499999999998                 12.8925
   105   1                       0      46.409999999999997                      12
   106   1                       0      48.194999999999993                  13.785
   107   1      1.7849999999999999      48.194999999999993                      12
   108   1      1.7849999999999999      46.409999999999997                  13.785
   109   1      2.6774999999999998      47.302499999999995                 14.6775
   110   1     0.89249999999999996      47.302499999999995                 12.8925
   111   1     0.89249999999999996      49.087499999999999                 14.6775
   112   1      2.6774999999999998      49.087499999999999                 12.8925
   113   1                       0      49.979999999999997                      12
   114   1                       0      51.764999999999993                  13.785
   115   1      1.7849999999999999      51.764999999999993                      12
   116   1      1.7849999999999999      49.979999999999997                  13.785
   117   1      2.6774999999999998      50.872499999999995                 14.6775
   118   1     0.89249999999999996      50.872499999999995                 12.8925
   119   1     0.89249999999999996      52.657499999999999                 14.6775
   120   1      2.6774999999999998      52.657499999999999                 12.8925
   121   1                       0      53.549999999999997                      12
   122   1                       0      55.334999999999994                  13.785
   123   1      1.7849999999999999      55.334999999999994                      12
   124   1      1.7849999999999999      53.549999999999997                  13.785
   125   1      2.6774999999999998      54.442499999999995                 14.6775
   126   1     0.89249999999999996      54.442499999999995                 12.8925
   127   1     0.89249999999999996      56.227499999999999                 14.6775
   128   1      2.6774999999999998      56.227499999999999                 12.8925
   129   1                       0      57.119999999999997                      12
   130   1                       0      58.904999999999994                  13.785
   131   1      1.7849999999999999      58.904999999999994                      12
   132   1      1.7849999999999999      57.119999999999997                  13.785
   133   1      2.6774999999999998      58.012499999999996                 14.6775
   134   1     0.89249999999999996      58.012499999999996                 12.8925
   135   1     0.89249999999999996      59.797499999999999                 14.6775
   136   1      2.6774999999999998      59.797499999999999                 12.8925
   137   1                       0      60.689999999999998                      12
   138   1                       0      62.474999999999994                  13.785
   139   1      1.7849999999999999      62.474999999999994                      12
   140   1      1.7849999999999999      60.689999999999998                  13.785
   141   1      2.6774999999999998      61.582499999999996                 14.6775
   142   1     0.89249999999999996      61.582499999999996                 12.8925
   143   1     0.89249999999999996                 63.3675                 14.6775
   144   1      2.6774999999999998                 63.3675                 12.8925
   145   1                       0      64.259999999999991                      12
   146   1                       0      66.044999999999987                  13.785
   147   1      1.7849999999999999      66.044999999999987                      12
   148   1      1.7849999999999999      64.259999999999991                  13.785
   149   1      2.6774999999999998      65.152499999999989                 14.6775
   150   1     0.89249999999999996      65.152499999999989                 12.8925
   151   1     0.89249999999999996      66.937499999999986                 14.6775
   152   1      2.6774999999999998      66.937499999999986                 12.8925
   153   1                       0      67.829999999999998                      12
   154   1                       0      69.614999999999995                  13.785
   155   1      1.7849999999999999      69.614999999999995                      12
   156   1      1.7849999999999999      67.829999999999998                  13.785
   157   1      2.6774999999999998      68.722499999999997                 14.6775
   158   1     0.89249999999999996      68.722499999999997                 12.8925
   159   1     0.89249999999999996      70.507499999999993                 14.6775
   160   1      2.6774999999999998      70.507499999999993                 12.8925
   161   1                       0      71.399999999999991                      12
   162   1                       0      73.184999999999988                  13.785
   163   1      1.7849999999999999      73.184999999999988                      12
   164   1      1.7849999999999999      71.399999999999991                  13.785
   165   1      2.6774999999999998       72.29249999999999                 14.6775
   166   1     0.89249999999999996       72.29249999999999                 12.8925
   167   1     0.89249999999999996      74.077499999999986                 14.6775
   168   1      2.6774999999999998      74.077499999999986                 12.8925
   169   1                       0      74.969999999999999                      12
   170   1                       0      76.754999999999995                  13.785
   171   1      1.7849999999999999      76.754999999999995                      12
   172   1      1.7849999999999999      74.969999999999999                  13.785
   173   1      2.6774999999999998      75.862499999999997                 14.6775
   174   1     0.89249999999999996      75.862499999999997                 12.8925
   175   1     0.89249999999999996      77.647499999999994                 14.6775
   176   1      2.6774999999999998      77.647499999999994                 12.8925
   177   1                       0      78.539999999999992                      12
   178   1                       0      80.324999999999989                  13.785
   179   1      1.7849999999999999      80.324999999999989                      12
   180   1      1.7849999999999999      78.539999999999992                  13.785
   181   1      2.6774999999999998       79.43249999999999                 14.6775
   182   1     0.89249999999999996       79.43249999999999                 12.8925
   183   1     0.89249999999999996      81.217499999999987                 14.6775
   184   1      2.6774999999999998      81.217499999999987                 12.8925
   185   1                       0      82.109999999999999                      12
   186   1                       0      83.894999999999996                  13.785
   187   1      1.7849999999999999      83.894999999999996                      12
   188   1      1.7849999999999999      82.109999999999999                  13.785
   189   1      2.6774999999999998      83.002499999999998                 14.6775
   190   1     0.89249999999999996      83.002499999999998                 12.8925
   191   1     0.89249999999999996      84.787499999999994                 14.6775
   192   1      2.6774999999999998      84.787499999999994                 12.8925
   193   1                       0      85.679999999999993                      12
   194   1                       0      87.464999999999989                  13.785
   195   1      1.7849999999999999      87.464999999999989                      12
   196   1      1.7849999999999999      85.679999999999993                  13.785
   197   1      2.6774999999999998      86.572499999999991                 14.6775
   198   1     0.89249999999999996      86.572499999999991                 12.8925
   199   1     0.89249999999999996      88.357499999999987                 14.6775
   200   1      2.6774999999999998      88.357499999999987                 12.8925
   201   1                       0                   89.25                      12
   202   1                       0      91.034999999999997                  13.785
   203   1      1.7849999999999999      91.034999999999997                      12
   204   1      1.7849999999999999                   89.25                  13.785
   205   1      2.6774999999999998      90.142499999999998                 14.6775
   206   1     0.89249999999999996      90.142499999999998                 12.8925
   207   1     0.89249999999999996      91.927499999999995                 14.6775
   208   1      2.6774999999999998      91.927499999999995                 12.8925
   209   1                       0      92.819999999999993                      12
   210   1                       0       94.60499999999999                  13.785
   211   1      1.7849999999999999       94.60499999999999                      12
   212   1      1.7849999999999999      92.819999999999993                  13.785
   213   1      2.6774999999999998      93.712499999999991                 14.6775
   214   1     0.89249999999999996      93.712499999999991                 12.8925
   215   1     0.89249999999999996      95.497499999999988                 14.6775
   216   1      2.6774999999999998      95.497499999999988                 12.8925
   217   1      3.5699999999999998                       0                      12
   218   1      3.5699999999999998      1.7849999999999999                  13.785
   219   1      5.3549999999999995      1.7849999999999999                      12
   220   1      5.3549999999999995                       0                  13.785
   221   1      6.2474999999999996     0.89249999999999996                 14.6775
   222   1      4.4624999999999995     0.89249999999999996                 12.8925
   223   1      4.4624999999999995      2.6774999999999998                 14.6775
   224   1      6.2474999999999996      2.6774999999999998                 12.8925
   225   1      3.5699999999999998      3.5699999999999998                      12
   226   1      3.5699999999999998      5.3549999999999995                  13.785
   227   1      5.3549999999999995      5.3549999999999995                      12
   228   1      5.3549999999999995      3.5699999999999998                  13.785
   229   1      6.2474999999999996      4.4624999999999995                 14.6775
   230   1      4.4624999999999995      4.4624999999999995                 12.8925
   231   1      4.4624999999999995      6.2474999999999996                 14.6775
   232   1      6.2474999999999996      6.2474999999999996                 12.8925
   233   1      3.5699999999999998      7.1399999999999997                      12
   234   1      3.5699999999999998      8.9249999999999989                  13.785
   235   1      5.3549999999999995      8.9249999999999989                      12
   236   1      5.3549999999999995      7.1399999999999997                  13.785
   237   1      6.2474999999999996      8.0324999999999989                 14.6775
   238   1      4.4624999999999995      8.0324999999999989                 12.8925
   239   1      4.4624999999999995       9.817499999999999                 14.6775
   240   1      6.2474999999999996       9.817499999999999                 12.8925
   241   1      3.5699999999999998      10.709999999999999                      12
   242   1      3.5699999999999998      12.494999999999999                  13.785
   243   1      5.3549999999999995      12.494999999999999                      12
   244   1      5.3549999999999995      10.709999999999999                  13.785
   245   1      6.2474999999999996      11.602499999999999                 14.6775
   246   1      4.4624999999999995      11.602499999999999                 12.8925
   247   1      4.4624999999999995      13.387499999999999                 14.6775
   248   1      6.2474999999999996      13.387499999999999                 12.8925
   249   1      3.5699999999999998      14.279999999999999                      12
   250   1      3.5699999999999998      16.064999999999998                  13.785
   251   1      5.3549999999999995      16.064999999999998                      12
   252   1      5.3549999999999995      14.279999999999999                  13.785
   253   1      6.2474999999999996      15.172499999999999                 14.6775
   254   1      4.4624999999999995      15.172499999999999                 12.8925
   255   1      4.4624999999999995                 16.9575                 14.6775
   256   1      6.2474999999999996                 16.9575                 12.8925
   257   1      3.5699999999999998      17.849999999999998                      12
   258   1      3.5699999999999998      19.634999999999998                  13.785
   259   1      5.3549999999999995      19.634999999999998                      12
   260   1      5.3549999999999995      17.849999999999998                  13.785
   261   1      6.2474999999999996      18.742499999999996                 14.6775
   262   1      4.4624999999999995      18.742499999999996                 12.8925
   263   1      4.4624999999999995      20.527499999999996                 14.6775
   264   1      6.2474999999999996      20.527499999999996                 12.8925
   265   1      3.5699999999999998      21.419999999999998                      12
   266   1      3.5699999999999998      23.204999999999998                  13.785
   267   1      5.3549999999999995      23.204999999999998                      12
   268   1      5.3549999999999995      21.419999999999998                  13.785
   269   1      6.2474999999999996      22.312499999999996                 14.6775
   270   1      4.4624999999999995      22.312499999999996                 12.8925
   271   1      4.4624999999999995      24.097499999999997                 14.6775
   272   1      6.2474999999999996      24.097499999999997                 12.8925
   273   1      3.5699999999999998      24.989999999999998                      12
   274   1      3.5699999999999998      26.774999999999999                  13.785
   275   1      5.3549999999999995      26.774999999999999                      12
   276   1      5.3549999999999995      24.989999999999998                  13.785
   277   1      6.2474999999999996      25.882499999999997                 14.6775
   278   1      4.4624999999999995      25.882499999999997                 12.8925
   279   1      4.4624999999999995      27.667499999999997                 14.6775
   280   1      6.2474999999999996      27.667499999999997                 12.8925
   281   1      3.5699999999999998      28.559999999999999                      12
   282   1      3.5699999999999998      30.344999999999999                  13.785
   283   1      5.3549999999999995      30.344999999999999                      12
   284   1      5.3549999999999995      28.559999999999999                  13.785
   285   1      6.2474999999999996      29.452499999999997                 14.6775
   286   1      4.4624999999999995      29.452499999999997                 12.8925
   287   1      4.4624999999999995      31.237499999999997                 14.6775
   288   1      6.2474999999999996      31.237499999999997                 12.8925
   289   1      3.5699999999999998      32.129999999999995                      12
   290   1      3.5699999999999998      33.914999999999992                  13.785
   291   1      5.3549999999999995      33.914999999999992                      12
   292   1      5.3549999999999995      32.129999999999995                  13.785
   293   1      6.2474999999999996      33.022499999999994                 14.6775
   294   1      4.4624999999999995      33.022499999999994                 12.8925
   295   1      4.4624999999999995      34.807499999999997                 14.6775
   296   1      6.2474999999999996      34.807499999999997                 12.8925
   297   1      3.5699999999999998      35.699999999999996                      12
   298   1      3.5699999999999998      37.484999999999992                  13.785
   299   1      5.3549999999999995      37.484999999999992                      12
   300   1      5.3549999999999995      35.699999999999996                  13.785
   301   1      6.2474999999999996      36.592499999999994                 14.6775
   302   1      4.4624999999999995      36.592499999999994                 12.8925
   303   1      4.4624999999999995      38.377499999999998                 14.6775
   304   1      6.2474999999999996      38.377499999999998                 12.8925
   305   1      3.5699999999999998      39.269999999999996                      12
   306   1      3.5699999999999998      41.054999999999993                  13.785
   307   1      5.3549999999999995      41.054999999999993                      12
   308   1      5.3549999999999995      39.269999999999996                  13.785
   309   1      6.2474999999999996      40.162499999999994                 14.6775
   310   1      4.4624999999999995      40.162499999999994                 12.8925
   311   1      4.4624999999999995      41.947499999999998                 14.6775
   312   1      6.2474999999999996      41.947499999999998                 12.8925
   313   1      3.5699999999999998      42.839999999999996                      12
   314   1      3.5699999999999998      44.624999999999993                  13.785
   315   1      5.3549999999999995      44.624999999999993                      12
   316   1      5.3549999999999995      42.839999999999996                  13.785
   317   1      6.2474999999999996      43.732499999999995                 14.6775
   318   1      4.4624999999999995      43.732499999999995                 12.8925
   319   1      4.4624999999999995      45.517499999999998                 14.6775
   320   1      6.2474999999999996      45.517499999999998                 12.8925
   321   1      3.5699999999999998      46.409999999999997                      12
   322   1      3.5699999999999998      48.194999999999993                  13.785
   323   1      5.3549999999999995      48.194999999999993                      12
   324   1      5.3549999999999995      46.409999999999997                  13.785
   325   1      6.2474999999999996      47.302499999999995                 14.6775
   326   1      4.4624999999999995      47.302499999999995                 12.8925
   327   1      4.4624999999999995      49.087499999999999                 14.6775
   328   1      6.2474999999999996      49.087499999999999                 12.8925
   329   1      3.5699999999999998      49.979999999999997                      12
   330   1      3.5699999999999998      51.764999999999993                  13.785
   331   1      5.3549999999999995      51.764999999999993                      12
   332   1      5.3549999999999995      49.979999999999997                  13.785
   333   1      6.2474999999999996      50.872499999999995                 14.6775
   334   1      4.4624999999999995      50.872499999999995                 12.8925
   335   1      4.4624999999999995      52.657499999999999                 14.6775
   336   1      6.2474999999999996      52.657499999999999                 12.8925
   337   1      3.5699999999999998      53.549999999999997                      12
   338   1      3.5699999999999998      55.334999999999994                  13.785
   339   1      5.3549999999999995      55.334999999999994                      12
   340   1      5.3549999999999995      53.549999999999997                  13.785
   341   1      6.2474999999999996      54.442499999999995                 14.6775
   342   1      4.4624999999999995      54.442499999999995                 12.8925
   343   1      4.4624999999999995      56.227499999999999                 14.6775
   344   1      6.2474999999999996      56.227499999999999                 12.8925
   345   1      3.5699999999999998      57.119999999999997                      12
   346   1      3.5699999999999998      58.904999999999994                  13.785
   347   1      5.3549999999999995      58.904999999999994                      12
   348   1      5.3549999999999995      57.119999999999997                  13.785
   349   1      6.2474999999999996      58.012499999999996                 14.6775
   350   1      4.4624999999999995      58.012499999999996                 12.8925
   351   1      4.4624999999999995      59.797499999999999                 14.6775
   352   1      6.2474999999999996      59.797499999999999                 12.8925
   353   1      3.5699999999999998      60.689999999999998                      12
   354   1      3.5699999999999998      62.474999999999994                  13.785
   355   1      5.3549999999999995      62.474999999999994                      12
   356   1      5.3549999999999995      60.689999999999998                  13.785
   357   1      6.2474999999999996      61.582499999999996                 14.6775
   358   1      4.4624999999999995      61.582499999999996                 12.8925
   359   1      4.4624999999999995                 63.3675                 14.6775