./lammps_sheet (written by ASE) 

5888 	 atoms 
1  atom types
0.0      134.64000000000001  xlo xhi
0.0      161.09804561198325  ylo yhi
0.0                       4  zlo zhi


Atoms 

     1   1                       2  9.9999999999999998e-13                       2
     2   1                    2.71      1.2297560733749029                       2
     3   1                       2      2.4595121467488057                       2
     4   1                    2.71      3.6892682201227087                       2
     5   1                       2      4.9190242934966113                       2
     6   1                    2.71      6.1487803668705139                       2
     7   1                       2      7.3785364402444173                       2
     8   1                    2.71      8.6082925136183199                       2
     9   1                       2      9.8380485869922225                       2
    10   1                    2.71      11.067804660366125                       2
    11   1                       2      12.297560733740028                       2
    12   1                    2.71       13.52731680711393                       2
    13   1                       2      14.757072880487835                       2
    14   1                    2.71      15.986828953861737                       2
    15   1                       2      17.216585027235638                       2
    16   1                    2.71      18.446341100609541                       2
    17   1                       2      19.676097173983443                       2
    18   1                    2.71      20.905853247357346                       2
    19   1                       2      22.135609320731248                       2
    20   1                    2.71      23.365365394105151                       2
    21   1                       2      24.595121467479053                       2
    22   1                    2.71      25.824877540852956                       2
    23   1                       2      27.054633614226859                       2
    24   1                    2.71      28.284389687600761                       2
    25   1                       2      29.514145760974667                       2
    26   1                    2.71       30.74390183434857                       2
    27   1                       2      31.973657907722473                       2
    28   1                    2.71      33.203413981096382                       2
    29   1                       2      34.433170054470281                       2
    30   1                    2.71      35.662926127844187                       2
    31   1                       2      36.892682201218086                       2
    32   1                    2.71      38.122438274591993                       2
    33   1                       2      39.352194347965892                       2
    34   1                    2.71      40.581950421339798                       2
    35   1                       2      41.811706494713697                       2
    36   1                    2.71      43.041462568087603                       2
    37   1                       2      44.271218641461502                       2
    38   1                    2.71      45.500974714835408                       2
    39   1                       2      46.730730788209307                       2
    40   1                    2.71      47.960486861583213                       2
    41   1                       2      49.190242934957112                       2
    42   1                    2.71      50.419999008331018                       2
    43   1                       2      51.649755081704917                       2
    44   1                    2.71      52.879511155078823                       2
    45   1                       2      54.109267228452723                       2
    46   1                    2.71      55.339023301826629                       2
    47   1                       2      56.568779375200528                       2
    48   1                    2.71      57.798535448574434                       2
    49   1                       2       59.02829152194834                       2
    50   1                    2.71      60.258047595322246                       2
    51   1                       2      61.487803668696145                       2
    52   1                    2.71      62.717559742070051                       2
    53   1                       2       63.94731581544395                       2
    54   1                    2.71      65.177071888817849                       2
    55   1                       2      66.406827962191741                       2
    56   1                    2.71      67.636584035565647                       2
    57   1                       2      68.866340108939553                       2
    58   1                    2.71       70.09609618231346                       2
    59   1                       2      71.325852255687352                       2
    60   1                    2.71      72.555608329061258                       2
    61   1                       2      73.785364402435164                       2
    62   1                    2.71       75.01512047580907                       2
    63   1                       2      76.244876549182962                       2
    64   1                    2.71      77.474632622556868                       2
    65   1                       2      78.704388695930774                       2
    66   1                    2.71       79.93414476930468                       2
    67   1                       2      81.163900842678586                       2
    68   1                    2.71      82.393656916052493                       2
    69   1                       2      83.623412989426384                       2
    70   1                    2.71      84.853169062800291                       2
    71   1                       2      86.082925136174197                       2
    72   1                    2.71      87.312681209548103                       2
    73   1                       2      88.542437282921995                       2
    74   1                    2.71      89.772193356295901                       2
    75   1                       2      91.001949429669807                       2
    76   1                    2.71      92.231705503043713                       2
    77   1                       2      93.461461576417605                       2
    78   1                    2.71      94.691217649791511                       2
    79   1                       2      95.920973723165417                       2
    80   1                    2.71      97.150729796539324                       2
    81   1                       2      98.380485869913215                       2
    82   1                    2.71      99.610241943287122                       2
    83   1                       2      100.83999801666103                       2
    84   1                    2.71      102.06975409003493                       2
    85   1                       2      103.29951016340883                       2
    86   1                    2.71      104.52926623678273                       2
    87   1                       2      105.75902231015664                       2
    88   1                    2.71      106.98877838353054                       2
    89   1                       2      108.21853445690444                       2
    90   1                    2.71      109.44829053027834                       2
    91   1                       2      110.67804660365225                       2
    92   1                    2.71      111.90780267702615                       2
    93   1                       2      113.13755875040005                       2
    94   1                    2.71      114.36731482377395                       2
    95   1                       2      115.59707089714786                       2
    96   1                    2.71      116.82682697052176                       2
    97   1                       2      118.05658304389567                       2
    98   1                    2.71      119.28633911726958                       2
    99   1                       2      120.51609519064347                       2
   100   1                    2.71      121.74585126401738                       2
   101   1                       2      122.97560733739128                       2
   102   1                    2.71      124.20536341076519                       2
   103   1                       2      125.43511948413908                       2
   104   1                    2.71      126.66487555751299                       2
   105   1                       2      127.89463163088689                       2
   106   1                    2.71      129.12438770426078                       2
   107   1                       2       130.3541437776347                       2
   108   1                    2.71       131.5838998510086                       2
   109   1                       2      132.81365592438249                       2
   110   1                    2.71      134.04341199775638                       2
   111   1                       2       135.2731680711303                       2
   112   1                    2.71      136.50292414450419                       2
   113   1                       2      137.73268021787811                       2
   114   1                    2.71        138.962436291252                       2
   115   1                       2      140.19219236462592                       2
   116   1                    2.71      141.42194843799982                       2
   117   1                       2      142.65170451137371                       2
   118   1                    2.71       143.8814605847476                       2
   119   1                       2      145.11121665812152                       2
   120   1                    2.71      146.34097273149541                       2
   121   1                       2      147.57072880486933                       2
   122   1                    2.71      148.80048487824322                       2
   123   1                       2      150.03024095161715                       2
   124   1                    2.71      151.25999702499104                       2
   125   1                       2      152.48975309836493                       2
   126   1                    2.71      153.71950917173882                       2
   127   1                       2      154.94926524511274                       2
   128   1                    2.71      156.17902131848663                       2
   129   1                       2      157.40877739186055                       2
   130   1                    2.71      158.63853346523445                       2
   131   1                       2      159.86828953860837                       2
   132   1                    2.71      161.09804561198226                       2
   133   1      4.8399999999999999  9.7157829056959597e-13                       2
   134   1      4.1299999999999999      1.2297560733749029                       2
   135   1      4.8399999999999999      2.4595121467488057                       2
   136   1      4.1299999999999999      3.6892682201227087                       2
   137   1      4.8399999999999999      4.9190242934966113                       2
   138   1      4.1299999999999999      6.1487803668705139                       2
   139   1      4.8399999999999999      12.297560733740028                       2
   140   1      4.1299999999999999       13.52731680711393                       2
   141   1      4.8399999999999999      14.757072880487833                       2
   142   1      4.1299999999999999      15.986828953861737                       2
   143   1      4.8399999999999999      17.216585027235638                       2
   144   1      4.1299999999999999      18.446341100609541                       2
   145   1      4.8399999999999999      19.676097173983443                       2
   146   1      4.1299999999999999      20.905853247357346                       2
   147   1      4.8399999999999999      22.135609320731248                       2
   148   1      4.1299999999999999      23.365365394105151                       2
   149   1      4.8399999999999999      24.595121467479053                       2
   150   1      4.1299999999999999      25.824877540852956                       2
   151   1      4.8399999999999999      27.054633614226859                       2
   152   1      4.1299999999999999      28.284389687600761                       2
   153   1      4.8399999999999999      29.514145760974664                       2
   154   1      4.1299999999999999       30.74390183434857                       2
   155   1      4.8399999999999999      36.892682201218093                       2
   156   1      4.1299999999999999      38.122438274591993                       2
   157   1      4.8399999999999999      39.352194347965899                       2
   158   1      4.1299999999999999      40.581950421339798                       2
   159   1      4.8399999999999999      41.811706494713704                       2
   160   1      4.1299999999999999      43.041462568087603                       2
   161   1      4.8399999999999999      44.271218641461509                       2
   162   1      4.1299999999999999      45.500974714835408                       2
   163   1      4.8399999999999999      46.730730788209314                       2
   164   1      4.1299999999999999      47.960486861583213                       2
   165   1      4.8399999999999999      49.190242934957119                       2
   166   1      4.1299999999999999      50.419999008331018                       2
   167   1      4.8399999999999999      51.649755081704924                       2
   168   1      4.1299999999999999      52.879511155078823                       2
   169   1      4.8399999999999999       54.10926722845273                       2
   170   1      4.1299999999999999      55.339023301826629                       2
   171   1      4.8399999999999999      61.487803668696152                       2
   172   1      4.1299999999999999      62.717559742070051                       2
   173   1      4.8399999999999999      63.947315815443957                       2
   174   1      4.1299999999999999      65.177071888817849                       2
   175   1      4.8399999999999999      66.406827962191755                       2
   176   1      4.1299999999999999      67.636584035565647                       2
   177   1      4.8399999999999999      68.866340108939553                       2
   178   1      4.1299999999999999       70.09609618231346                       2
   179   1      4.8399999999999999      71.325852255687366                       2
   180   1      4.1299999999999999      72.555608329061258                       2
   181   1      4.8399999999999999      73.785364402435164                       2
   182   1      4.1299999999999999       75.01512047580907                       2
   183   1      4.8399999999999999      76.244876549182976                       2
   184   1      4.1299999999999999      77.474632622556868                       2
   185   1      4.8399999999999999      78.704388695930774                       2
   186   1      4.1299999999999999       79.93414476930468                       2
   187   1      4.8399999999999999      86.082925136174197                       2
   188   1      4.1299999999999999      87.312681209548103                       2
   189   1      4.8399999999999999      88.542437282922009                       2
   190   1      4.1299999999999999      89.772193356295901                       2
   191   1      4.8399999999999999      91.001949429669807                       2
   192   1      4.1299999999999999      92.231705503043713                       2
   193   1      4.8399999999999999      93.461461576417619                       2
   194   1      4.1299999999999999      94.691217649791511                       2
   195   1      4.8399999999999999      95.920973723165417                       2
   196   1      4.1299999999999999      97.150729796539324                       2
   197   1      4.8399999999999999       98.38048586991323                       2
   198   1      4.1299999999999999      99.610241943287122                       2
   199   1      4.8399999999999999      100.83999801666103                       2
   200   1      4.1299999999999999      102.06975409003493                       2
   201   1      4.8399999999999999      103.29951016340884                       2
   202   1      4.1299999999999999      104.52926623678273                       2
   203   1      4.8399999999999999      110.67804660365225                       2
   204   1      4.1299999999999999      111.90780267702615                       2
   205   1      4.8399999999999999      113.13755875040006                       2
   206   1      4.1299999999999999      114.36731482377395                       2
   207   1      4.8399999999999999      115.59707089714786                       2
   208   1      4.1299999999999999      116.82682697052176                       2
   209   1      4.8399999999999999      118.05658304389567                       2
   210   1      4.1299999999999999      119.28633911726958                       2
   211   1      4.8399999999999999      120.51609519064348                       2
   212   1      4.1299999999999999      121.74585126401738                       2
   213   1      4.8399999999999999      122.97560733739128                       2
   214   1      4.1299999999999999      124.20536341076519                       2
   215   1      4.8399999999999999      125.43511948413909                       2
   216   1      4.1299999999999999      126.66487555751299                       2
   217   1      4.8399999999999999      127.89463163088689                       2
   218   1      4.1299999999999999      129.12438770426078                       2
   219   1      4.8399999999999999      135.27316807113027                       2
   220   1      4.1299999999999999      136.50292414450419                       2
   221   1      4.8399999999999999      137.73268021787808                       2
   222   1      4.1299999999999999        138.962436291252                       2
   223   1      4.8399999999999999       140.1921923646259                       2
   224   1      4.1299999999999999      141.42194843799982                       2
   225   1      4.8399999999999999      142.65170451137371                       2
   226   1      4.1299999999999999       143.8814605847476                       2
   227   1      4.8399999999999999      145.11121665812149                       2
   228   1      4.1299999999999999      146.34097273149541                       2
   229   1      4.8399999999999999       147.5707288048693                       2
   230   1      4.1299999999999999      148.80048487824322                       2
   231   1      4.8399999999999999      150.03024095161712                       2
   232   1      4.1299999999999999      151.25999702499104                       2
   233   1      4.8399999999999999      152.48975309836493                       2
   234   1      4.1299999999999999      153.71950917173882                       2
   235   1      4.8399999999999999      154.94926524511271                       2
   236   1      4.1299999999999999      156.17902131848663                       2
   237   1      4.8399999999999999      157.40877739186053                       2
   238   1      4.1299999999999999      158.63853346523445                       2
   239   1      4.8399999999999999      159.86828953860834                       2
   240   1      4.1299999999999999      161.09804561198226                       2
   241   1      6.2599999999999998  9.9999999999999998e-13                       2
   242   1      6.9699999999999998      1.2297560733749029                       2
   243   1      6.2599999999999998      2.4595121467488057                       2
   244   1      6.9699999999999998      3.6892682201227087                       2
   245   1      6.2599999999999998      4.9190242934966113                       2
   246   1      6.9699999999999998      6.1487803668705139                       2
   247   1      6.2599999999999998      7.3785364402444173                       2
   248   1      6.9699999999999998       13.52731680711393                       2
   249   1      6.2599999999999998      14.757072880487835                       2
   250   1      6.9699999999999998      15.986828953861737                       2
   251   1      6.2599999999999998      17.216585027235638                       2
   252   1      6.9699999999999998      18.446341100609541                       2
   253   1      6.2599999999999998      19.676097173983443                       2
   254   1      6.9699999999999998      20.905853247357346                       2
   255   1      6.2599999999999998      22.135609320731248                       2
   256   1      6.9699999999999998      23.365365394105151                       2
   257   1      6.9699999999999998      28.284389687600761                       2
   258   1      6.2599999999999998      29.514145760974667                       2
   259   1      6.9699999999999998       30.74390183434857                       2
   260   1      6.2599999999999998      31.973657907722473                       2
   261   1      6.9699999999999998      38.122438274591993                       2
   262   1      6.2599999999999998      39.352194347965892                       2
   263   1      6.9699999999999998      40.581950421339798                       2
   264   1      6.2599999999999998      41.811706494713697                       2
   265   1      6.9699999999999998      43.041462568087603                       2
   266   1      6.2599999999999998      44.271218641461502                       2
   267   1      6.9699999999999998      45.500974714835408                       2
   268   1      6.2599999999999998      46.730730788209307                       2
   269   1      6.9699999999999998      47.960486861583213                       2
   270   1      6.9699999999999998      52.879511155078823                       2
   271   1      6.2599999999999998      54.109267228452723                       2
   272   1      6.9699999999999998      55.339023301826629                       2
   273   1      6.2599999999999998      56.568779375200528                       2
   274   1      6.9699999999999998      62.717559742070051                       2
   275   1      6.2599999999999998       63.94731581544395                       2
   276   1      6.9699999999999998      65.177071888817849                       2
   277   1      6.2599999999999998      66.406827962191741                       2
   278   1      6.9699999999999998      67.636584035565647                       2
   279   1      6.2599999999999998      68.866340108939553                       2
   280   1      6.9699999999999998       70.09609618231346                       2
   281   1      6.2599999999999998      71.325852255687352                       2
   282   1      6.9699999999999998      72.555608329061258                       2
   283   1      6.9699999999999998      77.474632622556868                       2
   284   1      6.2599999999999998      78.704388695930774                       2
   285   1      6.9699999999999998       79.93414476930468                       2
   286   1      6.2599999999999998      81.163900842678586                       2
   287   1      6.9699999999999998      87.312681209548103                       2
   288   1      6.2599999999999998      88.542437282921995                       2
   289   1      6.9699999999999998      89.772193356295901                       2
   290   1      6.2599999999999998      91.001949429669807                       2
   291   1      6.9699999999999998      92.231705503043713                       2
   292   1      6.2599999999999998      93.461461576417605                       2
   293   1      6.9699999999999998      94.691217649791511                       2
   294   1      6.2599999999999998      95.920973723165417                       2
   295   1      6.9699999999999998      97.150729796539324                       2
   296   1      6.9699999999999998      102.06975409003493                       2
   297   1      6.2599999999999998      103.29951016340883                       2
   298   1      6.9699999999999998      104.52926623678273                       2
   299   1      6.2599999999999998      105.75902231015664                       2
   300   1      6.9699999999999998      111.90780267702615                       2
   301   1      6.2599999999999998      113.13755875040005                       2
   302   1      6.9699999999999998      114.36731482377395                       2
   303   1      6.2599999999999998      115.59707089714786                       2
   304   1      6.9699999999999998      116.82682697052176                       2
   305   1      6.2599999999999998      118.05658304389567                       2
   306   1      6.9699999999999998      119.28633911726958                       2
   307   1      6.2599999999999998      120.51609519064347                       2
   308   1      6.9699999999999998      121.74585126401738                       2
   309   1      6.9699999999999998      126.66487555751299                       2
   310   1      6.2599999999999998      127.89463163088689                       2
   311   1      6.9699999999999998      129.12438770426078                       2
   312   1      6.2599999999999998       130.3541437776347                       2
   313   1      6.9699999999999998      136.50292414450419                       2
   314   1      6.2599999999999998      137.73268021787811                       2
   315   1      6.9699999999999998        138.962436291252                       2
   316   1      6.2599999999999998      140.19219236462592                       2
   317   1      6.9699999999999998      141.42194843799982                       2
   318   1      6.2599999999999998      142.65170451137371                       2
   319   1      6.9699999999999998       143.8814605847476                       2
   320   1      6.2599999999999998      145.11121665812152                       2
   321   1      6.9699999999999998      146.34097273149541                       2
   322   1      6.9699999999999998      151.25999702499104                       2
   323   1      6.2599999999999998      152.48975309836493                       2
   324   1      6.9699999999999998      153.71950917173882                       2
   325   1      6.2599999999999998      154.94926524511274                       2
   326   1      6.9699999999999998      156.17902131848663                       2
   327   1      6.2599999999999998      157.40877739186055                       2
   328   1      6.9699999999999998      158.63853346523445                       2
   329   1      6.2599999999999998      159.86828953860837                       2
   330   1      6.9699999999999998      161.09804561198226                       2
   331   1      9.0999999999999996  9.7157829056959597e-13                       2
   332   1      8.3900000000000006      1.2297560733749029                       2
   333   1      9.0999999999999996      2.4595121467488057                       2
   334   1      8.3900000000000006      3.6892682201227087                       2
   335   1      9.0999999999999996      4.9190242934966113                       2
   336   1      8.3900000000000006      6.1487803668705139                       2
   337   1      9.0999999999999996      7.3785364402444165                       2
   338   1      8.3900000000000006      8.6082925136183199                       2
   339   1      8.3900000000000006       13.52731680711393                       2
   340   1      9.0999999999999996      14.757072880487833                       2
   341   1      8.3900000000000006      15.986828953861737                       2
   342   1      9.0999999999999996      17.216585027235638                       2
   343   1      8.3900000000000006      18.446341100609541                       2
   344   1      9.0999999999999996      19.676097173983443                       2
   345   1      8.3900000000000006      28.284389687600761                       2
   346   1      9.0999999999999996      29.514145760974664                       2
   347   1      8.3900000000000006       30.74390183434857                       2
   348   1      9.0999999999999996      31.973657907722473                       2
   349   1      8.3900000000000006      33.203413981096382                       2
   350   1      8.3900000000000006      38.122438274591993                       2
   351   1      9.0999999999999996      39.352194347965899                       2
   352   1      8.3900000000000006      40.581950421339798                       2
   353   1      9.0999999999999996      41.811706494713704                       2
   354   1      8.3900000000000006      43.041462568087603                       2
   355   1      9.0999999999999996      44.271218641461509                       2
   356   1      8.3900000000000006      52.879511155078823                       2
   357   1      9.0999999999999996       54.10926722845273                       2
   358   1      8.3900000000000006      55.339023301826629                       2
   359   1      9.0999999999999996      56.568779375200535                       2