./lammps_sheet (written by ASE) 

24 	 atoms 
1  atom types
0.0      8.1487803668695129  xlo xhi
0.0      8.5199999999999996  ylo yhi
0.0                       2  zlo zhi


Atoms 

     1   1     0.99999999999999956                       0                       1
     2   1      2.2297560733739021     0.70999999999999996                       1
     3   1      2.2297560733739021      2.1299999999999999                       1
     4   1     0.99999999999999956      2.8399999999999999                       1
     5   1     0.99999999999999956      4.2599999999999998                       1
     6   1      2.2297560733739021      4.9699999999999998                       1
     7   1      2.2297560733739021      6.3899999999999997                       1
     8   1     0.99999999999999956      7.0999999999999996                       1
     9   1      3.4595121467478052                       0                       1
    10   1      4.6892682201217077     0.70999999999999996                       1
    11   1      4.6892682201217077      2.1299999999999999                       1
    12   1      3.4595121467478052      2.8399999999999999                       1
    13   1      3.4595121467478052      4.2599999999999998                       1
    14   1      4.6892682201217077      4.9699999999999998                       1
    15   1      4.6892682201217077      6.3899999999999997                       1
    16   1      3.4595121467478052      7.0999999999999996                       1
    17   1      5.9190242934956103                       0                       1
    18   1      7.1487803668695129     0.70999999999999996                       1
    19   1      7.1487803668695129      2.1299999999999999                       1
    20   1      5.9190242934956103      2.8399999999999999                       1
    21   1      5.9190242934956103      4.2599999999999998                       1
    22   1      7.1487803668695129      4.9699999999999998                       1
    23   1      7.1487803668695129      6.3899999999999997                       1
    24   1      5.9190242934956103      7.0999999999999996                       1
