./lammps_sheet_and_block (written by ASE) 

3632 	 atoms 
1  atom types
0.0      53.549999999999997  xlo xhi
0.0      46.409999999999997  ylo yhi
0.0      24.140000000000001  zlo zhi


Atoms 

     1   1                       0                       0                      17
     2   1                       0      1.7849999999999999                  18.785
     3   1      1.7849999999999999      1.7849999999999999                      17
     4   1      1.7849999999999999                       0                  18.785
     5   1      2.6774999999999998     0.89249999999999996      19.677499999999998
     6   1     0.89249999999999996     0.89249999999999996      17.892499999999998
     7   1     0.89249999999999996      2.6774999999999998      19.677499999999998
     8   1      2.6774999999999998      2.6774999999999998      17.892499999999998
     9   1                       0                       0                   20.57
    10   1                       0      1.7849999999999999                  22.355
    11   1      1.7849999999999999      1.7849999999999999                   20.57
    12   1      1.7849999999999999                       0                  22.355
    13   1      2.6774999999999998     0.89249999999999996      23.247499999999999
    14   1     0.89249999999999996     0.89249999999999996      21.462499999999999
    15   1     0.89249999999999996      2.6774999999999998      23.247499999999999
    16   1      2.6774999999999998      2.6774999999999998      21.462499999999999
    17   1                       0      3.5699999999999998                      17
    18   1                       0      5.3549999999999995                  18.785
    19   1      1.7849999999999999      5.3549999999999995                      17
    20   1      1.7849999999999999      3.5699999999999998                  18.785
    21   1      2.6774999999999998      4.4624999999999995      19.677499999999998
    22   1     0.89249999999999996      4.4624999999999995      17.892499999999998
    23   1     0.89249999999999996      6.2474999999999996      19.677499999999998
    24   1      2.6774999999999998      6.2474999999999996      17.892499999999998
    25   1                       0      3.5699999999999998                   20.57
    26   1                       0      5.3549999999999995                  22.355
    27   1      1.7849999999999999      5.3549999999999995                   20.57
    28   1      1.7849999999999999      3.5699999999999998                  22.355
    29   1      2.6774999999999998      4.4624999999999995      23.247499999999999
    30   1     0.89249999999999996      4.4624999999999995      21.462499999999999
    31   1     0.89249999999999996      6.2474999999999996      23.247499999999999
    32   1      2.6774999999999998      6.2474999999999996      21.462499999999999
    33   1                       0      7.1399999999999997                      17
    34   1                       0      8.9249999999999989                  18.785
    35   1      1.7849999999999999      8.9249999999999989                      17
    36   1      1.7849999999999999      7.1399999999999997                  18.785
    37   1      2.6774999999999998      8.0324999999999989      19.677499999999998
    38   1     0.89249999999999996      8.0324999999999989      17.892499999999998
    39   1     0.89249999999999996       9.817499999999999      19.677499999999998
    40   1      2.6774999999999998       9.817499999999999      17.892499999999998
    41   1                       0      7.1399999999999997                   20.57
    42   1                       0      8.9249999999999989                  22.355
    43   1      1.7849999999999999      8.9249999999999989                   20.57
    44   1      1.7849999999999999      7.1399999999999997                  22.355
    45   1      2.6774999999999998      8.0324999999999989      23.247499999999999
    46   1     0.89249999999999996      8.0324999999999989      21.462499999999999
    47   1     0.89249999999999996       9.817499999999999      23.247499999999999
    48   1      2.6774999999999998       9.817499999999999      21.462499999999999
    49   1                       0      10.709999999999999                      17
    50   1                       0      12.494999999999999                  18.785
    51   1      1.7849999999999999      12.494999999999999                      17
    52   1      1.7849999999999999      10.709999999999999                  18.785
    53   1      2.6774999999999998      11.602499999999999      19.677499999999998
    54   1     0.89249999999999996      11.602499999999999      17.892499999999998
    55   1     0.89249999999999996      13.387499999999999      19.677499999999998
    56   1      2.6774999999999998      13.387499999999999      17.892499999999998
    57   1                       0      10.709999999999999                   20.57
    58   1                       0      12.494999999999999                  22.355
    59   1      1.7849999999999999      12.494999999999999                   20.57
    60   1      1.7849999999999999      10.709999999999999                  22.355
    61   1      2.6774999999999998      11.602499999999999      23.247499999999999
    62   1     0.89249999999999996      11.602499999999999      21.462499999999999
    63   1     0.89249999999999996      13.387499999999999      23.247499999999999
    64   1      2.6774999999999998      13.387499999999999      21.462499999999999
    65   1                       0      14.279999999999999                      17
    66   1                       0      16.064999999999998                  18.785
    67   1      1.7849999999999999      16.064999999999998                      17
    68   1      1.7849999999999999      14.279999999999999                  18.785
    69   1      2.6774999999999998      15.172499999999999      19.677499999999998
    70   1     0.89249999999999996      15.172499999999999      17.892499999999998
    71   1     0.89249999999999996                 16.9575      19.677499999999998
    72   1      2.6774999999999998                 16.9575      17.892499999999998
    73   1                       0      14.279999999999999                   20.57
    74   1                       0      16.064999999999998                  22.355
    75   1      1.7849999999999999      16.064999999999998                   20.57
    76   1      1.7849999999999999      14.279999999999999                  22.355
    77   1      2.6774999999999998      15.172499999999999      23.247499999999999
    78   1     0.89249999999999996      15.172499999999999      21.462499999999999
    79   1     0.89249999999999996                 16.9575      23.247499999999999
    80   1      2.6774999999999998                 16.9575      21.462499999999999
    81   1                       0      17.849999999999998                      17
    82   1                       0      19.634999999999998                  18.785
    83   1      1.7849999999999999      19.634999999999998                      17
    84   1      1.7849999999999999      17.849999999999998                  18.785
    85   1      2.6774999999999998      18.742499999999996      19.677499999999998
    86   1     0.89249999999999996      18.742499999999996      17.892499999999998
    87   1     0.89249999999999996      20.527499999999996      19.677499999999998
    88   1      2.6774999999999998      20.527499999999996      17.892499999999998
    89   1                       0      17.849999999999998                   20.57
    90   1                       0      19.634999999999998                  22.355
    91   1      1.7849999999999999      19.634999999999998                   20.57
    92   1      1.7849999999999999      17.849999999999998                  22.355
    93   1      2.6774999999999998      18.742499999999996      23.247499999999999
    94   1     0.89249999999999996      18.742499999999996      21.462499999999999
    95   1     0.89249999999999996      20.527499999999996      23.247499999999999
    96   1      2.6774999999999998      20.527499999999996      21.462499999999999
    97   1                       0      21.419999999999998                      17
    98   1                       0      23.204999999999998                  18.785
    99   1      1.7849999999999999      23.204999999999998                      17
   100   1      1.7849999999999999      21.419999999999998                  18.785
   101   1      2.6774999999999998      22.312499999999996      19.677499999999998
   102   1     0.89249999999999996      22.312499999999996      17.892499999999998
   103   1     0.89249999999999996      24.097499999999997      19.677499999999998
   104   1      2.6774999999999998      24.097499999999997      17.892499999999998
   105   1                       0      21.419999999999998                   20.57
   106   1                       0      23.204999999999998                  22.355
   107   1      1.7849999999999999      23.204999999999998                   20.57
   108   1      1.7849999999999999      21.419999999999998                  22.355
   109   1      2.6774999999999998      22.312499999999996      23.247499999999999
   110   1     0.89249999999999996      22.312499999999996      21.462499999999999
   111   1     0.89249999999999996      24.097499999999997      23.247499999999999
   112   1      2.6774999999999998      24.097499999999997      21.462499999999999
   113   1                       0      24.989999999999998                      17
   114   1                       0      26.774999999999999                  18.785
   115   1      1.7849999999999999      26.774999999999999                      17
   116   1      1.7849999999999999      24.989999999999998                  18.785
   117   1      2.6774999999999998      25.882499999999997      19.677499999999998
   118   1     0.89249999999999996      25.882499999999997      17.892499999999998
   119   1     0.89249999999999996      27.667499999999997      19.677499999999998
   120   1      2.6774999999999998      27.667499999999997      17.892499999999998
   121   1                       0      24.989999999999998                   20.57
   122   1                       0      26.774999999999999                  22.355
   123   1      1.7849999999999999      26.774999999999999                   20.57
   124   1      1.7849999999999999      24.989999999999998                  22.355
   125   1      2.6774999999999998      25.882499999999997      23.247499999999999
   126   1     0.89249999999999996      25.882499999999997      21.462499999999999
   127   1     0.89249999999999996      27.667499999999997      23.247499999999999
   128   1      2.6774999999999998      27.667499999999997      21.462499999999999
   129   1                       0      28.559999999999999                      17
   130   1                       0      30.344999999999999                  18.785
   131   1      1.7849999999999999      30.344999999999999                      17
   132   1      1.7849999999999999      28.559999999999999                  18.785
   133   1      2.6774999999999998      29.452499999999997      19.677499999999998
   134   1     0.89249999999999996      29.452499999999997      17.892499999999998
   135   1     0.89249999999999996      31.237499999999997      19.677499999999998
   136   1      2.6774999999999998      31.237499999999997      17.892499999999998
   137   1                       0      28.559999999999999                   20.57
   138   1                       0      30.344999999999999                  22.355
   139   1      1.7849999999999999      30.344999999999999                   20.57
   140   1      1.7849999999999999      28.559999999999999                  22.355
   141   1      2.6774999999999998      29.452499999999997      23.247499999999999
   142   1     0.89249999999999996      29.452499999999997      21.462499999999999
   143   1     0.89249999999999996      31.237499999999997      23.247499999999999
   144   1      2.6774999999999998      31.237499999999997      21.462499999999999
   145   1                       0      32.129999999999995                      17
   146   1                       0      33.914999999999992                  18.785
   147   1      1.7849999999999999      33.914999999999992                      17
   148   1      1.7849999999999999      32.129999999999995                  18.785
   149   1      2.6774999999999998      33.022499999999994      19.677499999999998
   150   1     0.89249999999999996      33.022499999999994      17.892499999999998
   151   1     0.89249999999999996      34.807499999999997      19.677499999999998
   152   1      2.6774999999999998      34.807499999999997      17.892499999999998
   153   1                       0      32.129999999999995                   20.57
   154   1                       0      33.914999999999992                  22.355
   155   1      1.7849999999999999      33.914999999999992                   20.57
   156   1      1.7849999999999999      32.129999999999995                  22.355
   157   1      2.6774999999999998      33.022499999999994      23.247499999999999
   158   1     0.89249999999999996      33.022499999999994      21.462499999999999
   159   1     0.89249999999999996      34.807499999999997      23.247499999999999
   160   1      2.6774999999999998      34.807499999999997      21.462499999999999
   161   1                       0      35.699999999999996                      17
   162   1                       0      37.484999999999992                  18.785
   163   1      1.7849999999999999      37.484999999999992                      17
   164   1      1.7849999999999999      35.699999999999996                  18.785
   165   1      2.6774999999999998      36.592499999999994      19.677499999999998
   166   1     0.89249999999999996      36.592499999999994      17.892499999999998
   167   1     0.89249999999999996      38.377499999999998      19.677499999999998
   168   1      2.6774999999999998      38.377499999999998      17.892499999999998
   169   1                       0      35.699999999999996                   20.57
   170   1                       0      37.484999999999992                  22.355
   171   1      1.7849999999999999      37.484999999999992                   20.57
   172   1      1.7849999999999999      35.699999999999996                  22.355
   173   1      2.6774999999999998      36.592499999999994      23.247499999999999
   174   1     0.89249999999999996      36.592499999999994      21.462499999999999
   175   1     0.89249999999999996      38.377499999999998      23.247499999999999
   176   1      2.6774999999999998      38.377499999999998      21.462499999999999
   177   1                       0      39.269999999999996                      17
   178   1                       0      41.054999999999993                  18.785
   179   1      1.7849999999999999      41.054999999999993                      17
   180   1      1.7849999999999999      39.269999999999996                  18.785
   181   1      2.6774999999999998      40.162499999999994      19.677499999999998
   182   1     0.89249999999999996      40.162499999999994      17.892499999999998
   183   1     0.89249999999999996      41.947499999999998      19.677499999999998
   184   1      2.6774999999999998      41.947499999999998      17.892499999999998
   185   1                       0      39.269999999999996                   20.57
   186   1                       0      41.054999999999993                  22.355
   187   1      1.7849999999999999      41.054999999999993                   20.57
   188   1      1.7849999999999999      39.269999999999996                  22.355
   189   1      2.6774999999999998      40.162499999999994      23.247499999999999
   190   1     0.89249999999999996      40.162499999999994      21.462499999999999
   191   1     0.89249999999999996      41.947499999999998      23.247499999999999
   192   1      2.6774999999999998      41.947499999999998      21.462499999999999
   193   1                       0      42.839999999999996                      17
   194   1                       0      44.624999999999993                  18.785
   195   1      1.7849999999999999      44.624999999999993                      17
   196   1      1.7849999999999999      42.839999999999996                  18.785
   197   1      2.6774999999999998      43.732499999999995      19.677499999999998
   198   1     0.89249999999999996      43.732499999999995      17.892499999999998
   199   1     0.89249999999999996      45.517499999999998      19.677499999999998
   200   1      2.6774999999999998      45.517499999999998      17.892499999999998
   201   1                       0      42.839999999999996                   20.57
   202   1                       0      44.624999999999993                  22.355
   203   1      1.7849999999999999      44.624999999999993                   20.57
   204   1      1.7849999999999999      42.839999999999996                  22.355
   205   1      2.6774999999999998      43.732499999999995      23.247499999999999
   206   1     0.89249999999999996      43.732499999999995      21.462499999999999
   207   1     0.89249999999999996      45.517499999999998      23.247499999999999
   208   1      2.6774999999999998      45.517499999999998      21.462499999999999
   209   1      3.5699999999999998                       0                      17
   210   1      3.5699999999999998      1.7849999999999999                  18.785
   211   1      5.3549999999999995      1.7849999999999999                      17
   212   1      5.3549999999999995                       0                  18.785
   213   1      6.2474999999999996     0.89249999999999996      19.677499999999998
   214   1      4.4624999999999995     0.89249999999999996      17.892499999999998
   215   1      4.4624999999999995      2.6774999999999998      19.677499999999998
   216   1      6.2474999999999996      2.6774999999999998      17.892499999999998
   217   1      3.5699999999999998                       0                   20.57
   218   1      3.5699999999999998      1.7849999999999999                  22.355
   219   1      5.3549999999999995      1.7849999999999999                   20.57
   220   1      5.3549999999999995                       0                  22.355
   221   1      6.2474999999999996     0.89249999999999996      23.247499999999999
   222   1      4.4624999999999995     0.89249999999999996      21.462499999999999
   223   1      4.4624999999999995      2.6774999999999998      23.247499999999999
   224   1      6.2474999999999996      2.6774999999999998      21.462499999999999
   225   1      3.5699999999999998      3.5699999999999998                      17
   226   1      3.5699999999999998      5.3549999999999995                  18.785
   227   1      5.3549999999999995      5.3549999999999995                      17
   228   1      5.3549999999999995      3.5699999999999998                  18.785
   229   1      6.2474999999999996      4.4624999999999995      19.677499999999998
   230   1      4.4624999999999995      4.4624999999999995      17.892499999999998
   231   1      4.4624999999999995      6.2474999999999996      19.677499999999998
   232   1      6.2474999999999996      6.2474999999999996      17.892499999999998
   233   1      3.5699999999999998      3.5699999999999998                   20.57
   234   1      3.5699999999999998      5.3549999999999995                  22.355
   235   1      5.3549999999999995      5.3549999999999995                   20.57
   236   1      5.3549999999999995      3.5699999999999998                  22.355
   237   1      6.2474999999999996      4.4624999999999995      23.247499999999999
   238   1      4.4624999999999995      4.4624999999999995      21.462499999999999
   239   1      4.4624999999999995      6.2474999999999996      23.247499999999999
   240   1      6.2474999999999996      6.2474999999999996      21.462499999999999
   241   1      3.5699999999999998      7.1399999999999997                      17
   242   1      3.5699999999999998      8.9249999999999989                  18.785
   243   1      5.3549999999999995      8.9249999999999989                      17
   244   1      5.3549999999999995      7.1399999999999997                  18.785
   245   1      6.2474999999999996      8.0324999999999989      19.677499999999998
   246   1      4.4624999999999995      8.0324999999999989      17.892499999999998
   247   1      4.4624999999999995       9.817499999999999      19.677499999999998
   248   1      6.2474999999999996       9.817499999999999      17.892499999999998
   249   1      3.5699999999999998      7.1399999999999997                   20.57
   250   1      3.5699999999999998      8.9249999999999989                  22.355
   251   1      5.3549999999999995      8.9249999999999989                   20.57
   252   1      5.3549999999999995      7.1399999999999997                  22.355
   253   1      6.2474999999999996      8.0324999999999989      23.247499999999999
   254   1      4.4624999999999995      8.0324999999999989      21.462499999999999
   255   1      4.4624999999999995       9.817499999999999      23.247499999999999
   256   1      6.2474999999999996       9.817499999999999      21.462499999999999
   257   1      3.5699999999999998      10.709999999999999                      17
   258   1      3.5699999999999998      12.494999999999999                  18.785
   259   1      5.3549999999999995      12.494999999999999                      17
   260   1      5.3549999999999995      10.709999999999999                  18.785
   261   1      6.2474999999999996      11.602499999999999      19.677499999999998
   262   1      4.4624999999999995      11.602499999999999      17.892499999999998
   263   1      4.4624999999999995      13.387499999999999      19.677499999999998
   264   1      6.2474999999999996      13.387499999999999      17.892499999999998
   265   1      3.5699999999999998      10.709999999999999                   20.57
   266   1      3.5699999999999998      12.494999999999999                  22.355
   267   1      5.3549999999999995      12.494999999999999                   20.57
   268   1      5.3549999999999995      10.709999999999999                  22.355
   269   1      6.2474999999999996      11.602499999999999      23.247499999999999
   270   1      4.4624999999999995      11.602499999999999      21.462499999999999
   271   1      4.4624999999999995      13.387499999999999      23.247499999999999
   272   1      6.2474999999999996      13.387499999999999      21.462499999999999
   273   1      3.5699999999999998      14.279999999999999                      17
   274   1      3.5699999999999998      16.064999999999998                  18.785
   275   1      5.3549999999999995      16.064999999999998                      17
   276   1      5.3549999999999995      14.279999999999999                  18.785
   277   1      6.2474999999999996      15.172499999999999      19.677499999999998
   278   1      4.4624999999999995      15.172499999999999      17.892499999999998
   279   1      4.4624999999999995                 16.9575      19.677499999999998
   280   1      6.2474999999999996                 16.9575      17.892499999999998
   281   1      3.5699999999999998      14.279999999999999                   20.57
   282   1      3.5699999999999998      16.064999999999998                  22.355
   283   1      5.3549999999999995      16.064999999999998                   20.57
   284   1      5.3549999999999995      14.279999999999999                  22.355
   285   1      6.2474999999999996      15.172499999999999      23.247499999999999
   286   1      4.4624999999999995      15.172499999999999      21.462499999999999
   287   1      4.4624999999999995                 16.9575      23.247499999999999
   288   1      6.2474999999999996                 16.9575      21.462499999999999
   289   1      3.5699999999999998      17.849999999999998                      17
   290   1      3.5699999999999998      19.634999999999998                  18.785
   291   1      5.3549999999999995      19.634999999999998                      17
   292   1      5.3549999999999995      17.849999999999998                  18.785
   293   1      6.2474999999999996      18.742499999999996      19.677499999999998
   294   1      4.4624999999999995      18.742499999999996      17.892499999999998
   295   1      4.4624999999999995      20.527499999999996      19.677499999999998
   296   1      6.2474999999999996      20.527499999999996      17.892499999999998
   297   1      3.5699999999999998      17.849999999999998                   20.57
   298   1      3.5699999999999998      19.634999999999998                  22.355
   299   1      5.3549999999999995      19.634999999999998                   20.57
   300   1      5.3549999999999995      17.849999999999998                  22.355
   301   1      6.2474999999999996      18.742499999999996      23.247499999999999
   302   1      4.4624999999999995      18.742499999999996      21.462499999999999
   303   1      4.4624999999999995      20.527499999999996      23.247499999999999
   304   1      6.2474999999999996      20.527499999999996      21.462499999999999
   305   1      3.5699999999999998      21.419999999999998                      17
   306   1      3.5699999999999998      23.204999999999998                  18.785
   307   1      5.3549999999999995      23.204999999999998                      17
   308   1      5.3549999999999995      21.419999999999998                  18.785
   309   1      6.2474999999999996      22.312499999999996      19.677499999999998
   310   1      4.4624999999999995      22.312499999999996      17.892499999999998
   311   1      4.4624999999999995      24.097499999999997      19.677499999999998
   312   1      6.2474999999999996      24.097499999999997      17.892499999999998
   313   1      3.5699999999999998      21.419999999999998                   20.57
   314   1      3.5699999999999998      23.204999999999998                  22.355
   315   1      5.3549999999999995      23.204999999999998                   20.57
   316   1      5.3549999999999995      21.419999999999998                  22.355
   317   1      6.2474999999999996      22.312499999999996      23.247499999999999
   318   1      4.4624999999999995      22.312499999999996      21.462499999999999
   319   1      4.4624999999999995      24.097499999999997      23.247499999999999
   320   1      6.2474999999999996      24.097499999999997      21.462499999999999
   321   1      3.5699999999999998      24.989999999999998                      17
   322   1      3.5699999999999998      26.774999999999999                  18.785
   323   1      5.3549999999999995      26.774999999999999                      17
   324   1      5.3549999999999995      24.989999999999998                  18.785
   325   1      6.2474999999999996      25.882499999999997      19.677499999999998
   326   1      4.4624999999999995      25.882499999999997      17.892499999999998
   327   1      4.4624999999999995      27.667499999999997      19.677499999999998
   328   1      6.2474999999999996      27.667499999999997      17.892499999999998
   329   1      3.5699999999999998      24.989999999999998                   20.57
   330   1      3.5699999999999998      26.774999999999999                  22.355
   331   1      5.3549999999999995      26.774999999999999                   20.57
   332   1      5.3549999999999995      24.989999999999998                  22.355
   333   1      6.2474999999999996      25.882499999999997      23.247499999999999
   334   1      4.4624999999999995      25.882499999999997      21.462499999999999
   335   1      4.4624999999999995      27.667499999999997      23.247499999999999
   336   1      6.2474999999999996      27.667499999999997      21.462499999999999
   337   1      3.5699999999999998      28.559999999999999                      17
   338   1      3.5699999999999998      30.344999999999999                  18.785
   339   1      5.3549999999999995      30.344999999999999                      17
   340   1      5.3549999999999995      28.559999999999999                  18.785
   341   1      6.2474999999999996      29.452499999999997      19.677499999999998
   342   1      4.4624999999999995      29.452499999999997      17.892499999999998
   343   1      4.4624999999999995      31.237499999999997      19.677499999999998
   344   1      6.2474999999999996      31.237499999999997      17.892499999999998
   345   1      3.5699999999999998      28.559999999999999                   20.57
   346   1      3.5699999999999998      30.344999999999999                  22.355
   347   1      5.3549999999999995      30.344999999999999                   20.57
   348   1      5.3549999999999995      28.559999999999999                  22.355
   349   1      6.2474999999999996      29.452499999999997      23.247499999999999
   350   1      4.4624999999999995      29.452499999999997      21.462499999999999
   351   1      4.4624999999999995      31.237499999999997      23.247499999999999
   352   1      6.2474999999999996      31.237499999999997      21.462499999999999
   353   1      3.5699999999999998      32.129999999999995                      17
   354   1      3.5699999999999998      33.914999999999992                  18.785
   355   1      5.3549999999999995      33.914999999999992                      17
   356   1      5.3549999999999995      32.129999999999995                  18.785
   357   1      6.2474999999999996      33.022499999999994      19.677499999999998
   358   1      4.4624999999999995      33.022499999999994      17.892499999999998
   359   1      4.4624999999999995      34.807499999999997      19.677499999999998