LAMMPS (23 Jun 2022)
units metal
newton on #newtons 3rd law for pairs

boundary m m m

atom_style atomic # coarse-grain liquids, solids, metals
read_data ./lammps_sheet # read lattice from file
Reading data file ...
  orthogonal box = (0 0 0) to (6.9190243 8.52 2)
  1 by 1 by 1 MPI processor grid
  reading atoms ...
  20 atoms
  read_data CPU = 0.001 seconds


# # --- Dynamics --- ##
variable temp equal 5.0

mass * 12.0107 # "*": all types, [grams/mole]
velocity all create ${temp} 5432373 dist gaussian
velocity all create 5 5432373 dist gaussian

neighbor            0.5 bin
neigh_modify        delay 0 every 1

pair_style          airebo 6.4 1 1  # cutoff LJ_flag TORSION_flag cutoff_min
pair_coeff          * * CH.airebo C # add H ofr hydrogren as2nd particle
Reading airebo potential file CH.airebo with DATE: 2011-10-25

fix                 nve all nve # (microcanonical)
timestep            0.0005

thermo              1

dump 1 all custom 1 sheet.data id type x y z vx vy vz
run 100
Neighbor list info ...
  update every 1 steps, delay 0 steps, check yes
  max neighbors/atom: 2000, page size: 100000
  master list distance cutoff = 22.26
  ghost atom cutoff = 22.26
  binsize = 11.13, bins = 1 1 1
  1 neighbor lists, perpetual/occasional/extra = 1 0 0
  (1) pair airebo, perpetual
      attributes: full, newton on, ghost
      pair build: full/bin/ghost
      stencil: full/ghost/bin/3d
      bin: standard
Per MPI rank memory allocation (min/avg/max) = 5.022 | 5.022 | 5.022 Mbytes
   Step          Temp          E_pair         E_mol          TotEng         Press          Volume    
         0   5             -119.20515      0             -119.19287     -125742.09      117.91196    
         1   6.2893679     -119.20833      0             -119.19288     -125445.39      117.91196    
         2   11.715844     -119.22169      0             -119.19292     -124277.11      117.91196    
         3   21.025316     -119.24462      0             -119.19299     -122232.15      117.91196    
         4   33.776567     -119.27604      0             -119.19308     -119302.6       117.91196    
         5   49.359652     -119.31442      0             -119.1932      -115479.33      117.91196    
         6   67.022338     -119.35794      0             -119.19333     -110754.27      117.91196    
         7   85.904504     -119.40446      0             -119.19348     -105123.12      117.91196    
         8   105.07999     -119.4517       0             -119.19363     -98588.604      117.91196    
         9   123.60472     -119.49734      0             -119.19377     -91163.897      117.91196    
        10   140.56902     -119.53914      0             -119.19391     -82876.167      117.91196    
        11   155.15143     -119.57506      0             -119.19402     -73769.875      117.91196    
        12   166.6703      -119.60343      0             -119.1941      -63909.587      117.91196    
        13   174.62943     -119.62303      0             -119.19415     -53381.995      117.91196    
        14   178.75337     -119.63317      0             -119.19416     -42296.853      117.91196    
        15   179.00888     -119.63377      0             -119.19414     -30786.585      117.91196    
        16   175.60933     -119.62536      0             -119.19408     -19004.379      117.91196    
        17   169.00024     -119.60904      0             -119.19398     -7120.7393      117.91196    
        18   159.82547     -119.58639      0             -119.19387      4681.4816      117.91196    
        19   148.87544     -119.55937      0             -119.19374      16213.358      117.91196    
        20   137.02061     -119.53012      0             -119.1936       27287.142      117.91196    
        21   125.13575     -119.50081      0             -119.19348      37723.997      117.91196    
        22   114.02184     -119.47341      0             -119.19338      47361.642      117.91196    
        23   104.33407     -119.44955      0             -119.19331      56061.236      117.91196    
        24   96.524869     -119.43034      0             -119.19328      63712.843      117.91196    
        25   90.810328     -119.41631      0             -119.19329      70238.887      117.91196    
        26   87.166062     -119.40741      0             -119.19333      75595.192      117.91196    
        27   85.354853     -119.40302      0             -119.1934       79769.456      117.91196    
        28   84.983534     -119.40219      0             -119.19347      82777.368      117.91196    
        29   85.581261     -119.40373      0             -119.19355      84656.886      117.91196    
        30   86.686895     -119.40651      0             -119.19361      85461.542      117.91196    
        31   87.930701     -119.4096       0             -119.19364      85253.768      117.91196    
        32   89.095819     -119.41246      0             -119.19365      84099.249      117.91196    
        33   90.14822      -119.41502      0             -119.19363      82063.136      117.91196    
        34   91.229438     -119.41763      0             -119.19358      79208.572      117.91196    
        35   92.613184     -119.42098      0             -119.19353      75597.563      117.91196    
        36   94.633959     -119.42589      0             -119.19347      71293.763      117.91196    
        37   97.601155     -119.43314      0             -119.19344      66366.373      117.91196    
        38   101.71479     -119.44324      0             -119.19343      60894.141      117.91196    
        39   106.99861     -119.45624      0             -119.19346      54968.44       117.91196    
        40   113.26294     -119.47169      0             -119.19352      48694.61       117.91196    
        41   120.10394     -119.48858      0             -119.19361      42191.052      117.91196    
        42   126.93957     -119.50547      0             -119.19372      35585.998      117.91196    
        43   133.07648     -119.52066      0             -119.19383      29012.278      117.91196    
        44   137.79714     -119.53235      0             -119.19393      22600.731      117.91196    
        45   140.4543      -119.53895      0             -119.19401      16473.108      117.91196    
        46   140.55908     -119.53925      0             -119.19405      10735.358      117.91196    
        47   137.85074     -119.5326       0             -119.19404      5472.1655      117.91196    
        48   132.33896     -119.51901      0             -119.194        743.35601      117.91196    
        49   124.31365     -119.49922      0             -119.19391     -3417.4396      117.91196    
        50   114.32155     -119.47456      0             -119.19379     -7001.7147      117.91196    
        51   103.11298     -119.44689      0             -119.19365     -10022.872      117.91196    
        52   91.566103     -119.41839      0             -119.19351     -12511.272      117.91196    
        53   80.59837      -119.39131      0             -119.19337     -14508.196      117.91196    
        54   71.076577     -119.36781      0             -119.19325     -16059.503      117.91196    
        55   63.736542     -119.3497       0             -119.19317     -17209.72       117.91196    
        56   59.121925     -119.33832      0             -119.19312     -17997.202      117.91196    
        57   57.548022     -119.33444      0             -119.19311     -18450.849      117.91196    
        58   59.092232     -119.33826      0             -119.19313     -18588.521      117.91196    
        59   63.609321     -119.3494       0             -119.19318     -18417.118      117.91196    
        60   70.765658     -119.36705      0             -119.19325     -17934.003      117.91196    
        61   80.085323     -119.39002      0             -119.19334     -17129.361      117.91196    
        62   90.999599     -119.41692      0             -119.19343     -15989.025      117.91196    
        63   102.89212     -119.44622      0             -119.19352     -14497.343      117.91196    
        64   115.13563     -119.47638      0             -119.19361     -12639.774      117.91196    
        65   127.11979     -119.5059       0             -119.1937      -10405.138      117.91196    
        66   138.26903     -119.53336      0             -119.19378     -7787.4319      117.91196    
        67   148.05771     -119.55747      0             -119.19385     -4787.3324      117.91196    
        68   156.02611     -119.5771       0             -119.19391     -1413.8342      117.91196    
        69   161.79555     -119.59131      0             -119.19395      2314.4615      117.91196    
        70   165.0816      -119.59941      0             -119.19398      6368.2062      117.91196    
        71   165.70926     -119.60096      0             -119.19399      10706.582      117.91196    
        72   163.63109     -119.59584      0             -119.19398      15276.39       117.91196    
        73   158.93469     -119.58428      0             -119.19394      20012.277      117.91196    
        74   151.83612     -119.56679      0             -119.19389      24837.847      117.91196    
        75   142.66378     -119.5442       0             -119.19383      29667.54       117.91196    
        76   131.835       -119.51753      0             -119.19375      34409.132      117.91196    
        77   119.82856     -119.48797      0             -119.19368      38966.619      117.91196    
        78   107.15655     -119.45677      0             -119.1936       43243.243      117.91196    
        79   94.339198     -119.42521      0             -119.19352      47144.377      117.91196    
        80   81.884825     -119.39455      0             -119.19344      50580.09       117.91196    
        81   70.275311     -119.36597      0             -119.19338      53467.324      117.91196    
        82   59.955166     -119.34056      0             -119.19332      55731.693      117.91196    
        83   51.321786     -119.31931      0             -119.19326      57309.057      117.91196    
        84   44.714287     -119.30304      0             -119.19322      58146.966      117.91196    
        85   40.40357      -119.29242      0             -119.19319      58205.883      117.91196    
        86   38.584191     -119.28794      0             -119.19318      57460.12       117.91196    
        87   39.363439     -119.28985      0             -119.19318      55898.745      117.91196    
        88   42.749159     -119.29818      0             -119.19319      53526.346      117.91196    
        89   48.63874      -119.31268      0             -119.19322      50363.514      117.91196    
        90   56.81217      -119.3328       0             -119.19328      46446.901      117.91196    
        91   66.932021     -119.35772      0             -119.19334      41828.687      117.91196    
        92   78.552481     -119.38635      0             -119.19343      36575.366      117.91196    
        93   91.138263     -119.41735      0             -119.19352      30765.835      117.91196    
        94   104.09262     -119.44926      0             -119.19361      24488.855      117.91196    
        95   116.79213     -119.48054      0             -119.1937       17840.073      117.91196    
        96   128.62465     -119.50969      0             -119.19379      10918.84       117.91196    
        97   139.02655     -119.5353       0             -119.19386      3825.0803      117.91196    
        98   147.51549     -119.55621      0             -119.19392     -3343.5408      117.91196    
        99   153.7162      -119.57147      0             -119.19396     -10494.004      117.91196    
       100   157.37805     -119.58048      0             -119.19397     -17539.793      117.91196    
Loop time of 0.0059953 on 1 procs for 100 steps with 20 atoms

Performance: 720.565 ns/day, 0.033 hours/ns, 16679.738 timesteps/s
90.7% CPU use with 1 MPI tasks x no OpenMP threads

MPI task timing breakdown:
Section |  min time  |  avg time  |  max time  |%varavg| %total
---------------------------------------------------------------
Pair    | 0.0026534  | 0.0026534  | 0.0026534  |   0.0 | 44.26
Neigh   | 0          | 0          | 0          |   0.0 |  0.00
Comm    | 9.788e-06  | 9.788e-06  | 9.788e-06  |   0.0 |  0.16
Output  | 0.0032652  | 0.0032652  | 0.0032652  |   0.0 | 54.46
Modify  | 3.609e-05  | 3.609e-05  | 3.609e-05  |   0.0 |  0.60
Other   |            | 3.077e-05  |            |       |  0.51

Nlocal:             20 ave          20 max          20 min
Histogram: 1 0 0 0 0 0 0 0 0 0
Nghost:              0 ave           0 max           0 min
Histogram: 1 0 0 0 0 0 0 0 0 0
Neighs:              0 ave           0 max           0 min
Histogram: 1 0 0 0 0 0 0 0 0 0
FullNghs:          380 ave         380 max         380 min
Histogram: 1 0 0 0 0 0 0 0 0 0

Total # of neighbors = 380
Ave neighs/atom = 19
Neighbor list builds = 0
Dangerous builds = 0




# run 10


# run as: lmp_serial < graphene_sheet.in
Total wall time: 0:00:00
