LAMMPS (23 Jun 2022)
units metal
newton on #newtons 3rd law for pairs

boundary m m m

atom_style atomic # coarse-grain liquids, solids, metals
read_data ./lammps_sheet # read lattice from file
Reading data file ...
  orthogonal box = (0 0 0) to (13.23 13.537317 4)
  1 by 1 by 1 MPI processor grid
  reading atoms ...
  58 atoms
ERROR: Did not assign all atoms correctly (src/read_data.cpp:1230)
Last command: read_data ./lammps_sheet # read lattice from file
