LAMMPS (23 Jun 2022)
units metal
newton on #newtons 3rd law for pairs

boundary m m m

atom_style atomic # coarse-grain liquids, solids, metals
read_data ./lammps_sheet # read lattice from file
Reading data file ...
  orthogonal box = (0 0 0) to (13.23 17.216585 4)
  1 by 1 by 1 MPI processor grid
  reading atoms ...
  60 atoms
  read_data CPU = 0.001 seconds


# # --- Dynamics --- ##
variable temp equal 5.0 # Kelvin

mass * 12.0107 # "*": all types, [grams/mole]
velocity all create ${temp} 5432373 dist gaussian
velocity all create 5 5432373 dist gaussian

neighbor            0.5 bin
neigh_modify        delay 0 every 1

pair_style          airebo 6.4 1 1  # cutoff LJ_flag TORSION_flag cutoff_min
pair_coeff          * * CH.airebo C # add H ofr hydrogren as2nd particle
Reading airebo potential file CH.airebo with DATE: 2011-10-25

fix                 nve all nve # (microcanonical)
timestep            0.0005

thermo              1

dump 1 all custom 1 sheet.data id type x y z vx vy vz
run 100
Neighbor list info ...
  update every 1 steps, delay 0 steps, check yes
  max neighbors/atom: 2000, page size: 100000
  master list distance cutoff = 22.26
  ghost atom cutoff = 22.26
  binsize = 11.13, bins = 2 2 1
  1 neighbor lists, perpetual/occasional/extra = 1 0 0
  (1) pair airebo, perpetual
      attributes: full, newton on, ghost
      pair build: full/bin/ghost
      stencil: full/ghost/bin/3d
      bin: standard
Per MPI rank memory allocation (min/avg/max) = 4.988 | 4.988 | 4.988 Mbytes
   Step          Temp          E_pair         E_mol          TotEng         Press          Volume    
         0   5             -354.75814      0             -354.72001     -66979.803      911.19279    
         1   7.857889      -354.78         0             -354.72008     -66824.529      911.19279    
         2   17.44192      -354.85331      0             -354.7203      -66283.392      911.19279    
         3   33.296338     -354.97459      0             -354.72066     -65349.403      911.19279    
         4   54.655259     -355.13799      0             -354.72117     -64011.228      911.19279    
         5   80.460598     -355.33543      0             -354.72181     -62254.27       911.19279    
         6   109.39162     -355.55682      0             -354.72257     -60062.253      911.19279    
         7   139.91009     -355.7904       0             -354.7234      -57419.364      911.19279    
         8   170.3252      -356.02324      0             -354.72428     -54312.973      911.19279    
         9   198.88179     -356.24189      0             -354.72515     -50736.939      911.19279    
        10   223.87352     -356.43328      0             -354.72594     -46695.407      911.19279    
        11   243.78033     -356.58574      0             -354.72658     -42205.071      911.19279    
        12   257.42247     -356.69019      0             -354.72699     -37303.077      911.19279    
        13   264.11911     -356.74136      0             -354.7271      -32044.136      911.19279    
        14   263.82808     -356.73889      0             -354.72685     -26513.953      911.19279    
        15   257.23716     -356.68801      0             -354.72623     -20820.886      911.19279    
        16   245.77494     -356.59965      0             -354.72528     -15094.681      911.19279    
        17   231.50802     -356.48968      0             -354.72412     -9479.7134      911.19279    
        18   216.90974     -356.37714      0             -354.72291     -4125.89        911.19279    
        19   204.51634     -356.28156      0             -354.72185      824.98414      911.19279    
        20   196.52419     -356.2199       0             -354.72114      5252.3818      911.19279    
        21   194.41385     -356.20357      0             -354.7209       9069.3358      911.19279    
        22   198.69535     -356.23649      0             -354.72117      12230.695      911.19279    
        23   208.84381     -356.3146       0             -354.72188      14736.497      911.19279    
        24   223.43984     -356.42691      0             -354.72288      16625.488      911.19279    
        25   240.47001     -356.55788      0             -354.72397      17968.161      911.19279    
        26   257.71034     -356.69036      0             -354.72497      18854.441      911.19279    
        27   273.102       -356.80852      0             -354.72575      19382.094      911.19279    
        28   285.03918     -356.90002      0             -354.72622      19643.487      911.19279    
        29   292.53448     -356.95732      0             -354.72635      19719.353      911.19279    
        30   295.26512     -356.97799      0             -354.7262       19675.329      911.19279    
        31   293.51144     -356.96424      0             -354.72582      19560.509      911.19279    
        32   288.01897     -356.92184      0             -354.72531      19408.982      911.19279    
        33   279.83024     -356.85882      0             -354.72473      19242.838      911.19279    
        34   270.1292      -356.78425      0             -354.72415      19075.394      911.19279    
        35   260.1178      -356.70736      0             -354.72361      18914.107      911.19279    
        36   250.92196     -356.63676      0             -354.72314      18762.997      911.19279    
        37   243.52459     -356.57996      0             -354.72275      18624.561      911.19279    
        38   238.71401     -356.543        0             -354.72248      18501.332      911.19279    
        39   237.03936     -356.53009      0             -354.72234      18397.256      911.19279    
        40   238.77204     -356.5433       0             -354.72234      18318.868      911.19279    
        41   243.87866     -356.5824       0             -354.72249      18276.155      911.19279    
        42   252.01362     -356.64473      0             -354.72279      18282.874      911.19279    
        43   262.53981     -356.72541      0             -354.72319      18356.149      911.19279    
        44   274.57578     -356.8177       0             -354.72369      18490.151      912.42964    
        45   287.05986     -356.91346      0             -354.72424      18754.395      912.42964    
        46   298.83606     -357.00382      0             -354.72479      19141.72       912.42964    
        47   308.76977     -357.08005      0             -354.72526      19664.857      912.42964    
        48   315.87311     -357.13459      0             -354.72563      20328.399      912.42964    
        49   319.39346     -357.16165      0             -354.72585      21126.505      912.42964    
        50   318.91115     -357.15798      0             -354.72585      22041.005      912.42964    
        51   314.44349     -357.12369      0             -354.72563      23039.584      912.42964    
        52   306.46488     -357.06242      0             -354.72521      24076.488      912.42964    
        53   295.86561     -356.981        0             -354.72463      25094.963      912.42964    
        54   283.86681     -356.88881      0             -354.72394      26031.005      912.42964    
        55   271.8799      -356.79671      0             -354.72325      26818.632      912.42964    
        56   261.31921     -356.71557      0             -354.72266      27396.216      912.42964    
        57   253.402       -356.65478      0             -354.72225      27712.893      912.42964    
        58   248.97869     -356.62087      0             -354.72207      27733.954      912.42964    
        59   248.4171      -356.61666      0             -354.72215      27444.444      912.42964    
        60   251.55969     -356.64094      0             -354.72246      26850.441      912.42964    
        61   257.76528     -356.68876      0             -354.72295      25977.701      912.42964    
        62   266.02559     -356.75234      0             -354.72354      24868.044      912.42964    
        63   275.13391     -356.82239      0             -354.72413      23574.058      912.42964    
        64   283.87912     -356.88958      0             -354.72462      22152.984      912.42964    
        65   291.2285      -356.94596      0             -354.72495      20660.765      912.42964    
        66   296.46484     -356.98604      0             -354.72509      19147.243      912.42964    
        67   299.26071     -357.0073       0             -354.72503      17652.988      912.42964    
        68   299.67978     -357.01028      0             -354.72482      16208.1        912.42964    
        69   298.11343     -356.99801      0             -354.7245       14835.602      912.42964    
        70   295.17895     -356.97526      0             -354.72412      13564.765      911.10168    
        71   291.60678     -356.94764      0             -354.72375      12360.093      911.10168    
        72   288.13539     -356.92084      0             -354.72342      11246.307      911.10168    
        73   285.42509     -356.89991      0             -354.72316      10225.316      911.10168    
        74   283.99536     -356.88882      0             -354.72298      9299.5108      911.10168    
        75   284.19952     -356.89027      0             -354.72287      8472.5671      911.10168    
        76   286.23315     -356.90574      0             -354.72283      7749.4583      911.10168    
        77   290.15849     -356.93568      0             -354.72283      7136.0052      911.10168    
        78   295.93772     -356.97979      0             -354.72287      6637.9563      911.10168    
        79   303.86696     -357.03944      0             -354.72204      6263.1224      911.10168    
        80   313.51162     -357.11434      0             -354.72339      6010.9707      911.10168    
        81   323.25961     -357.18937      0             -354.72408      5866.3321      911.10168    
        82   331.90431     -357.25535      0             -354.72413      5812.7965      911.10168    
        83   339.2043      -357.31075      0             -354.72386      5838.225       911.10168    
        84   345.47327     -357.35834      0             -354.72364      5931.9469      911.10168    
        85   351.00253     -357.40057      0             -354.72371      6080.3816      911.10168    
        86   355.66473     -357.43657      0             -354.72415      6264.4368      911.10168    
        87   359.18217     -357.46224      0             -354.723        6463.4857      911.10168    
        88   361.96361     -357.48343      0             -354.72297      6664.0215      911.10168    
        89   364.46688     -357.50255      0             -354.723        6853.6678      911.10168    
        90   366.63638     -357.51916      0             -354.72306      7016.1015      911.10168    
        91   368.36636     -357.53241      0             -354.72312      7134.8         911.10168    
        92   369.55484     -357.54151      0             -354.72316      7193.2285      911.10168    
        93   370.14279     -357.546        0             -354.72316      7175.1981      911.10168    
        94   370.12995     -357.54588      0             -354.72314      7065.7677      911.10168    
        95   369.55683     -357.54148      0             -354.72311      6821.6711      915.06204    
        96   368.4719      -357.53319      0             -354.72309      6493.1522      915.06204    
        97   366.90707     -357.52125      0             -354.72309      6043.3794      915.06204    
        98   364.85492     -357.50562      0             -354.72311      5471.457       915.06204    
        99   362.25162     -357.48581      0             -354.72316      4781.5111      915.06204    
       100   358.98613     -357.46097      0             -354.72321      3981.9655      915.06204    
Loop time of 0.0223371 on 1 procs for 100 steps with 60 atoms

Performance: 193.400 ns/day, 0.124 hours/ns, 4476.859 timesteps/s
95.3% CPU use with 1 MPI tasks x no OpenMP threads

MPI task timing breakdown:
Section |  min time  |  avg time  |  max time  |%varavg| %total
---------------------------------------------------------------
Pair    | 0.014135   | 0.014135   | 0.014135   |   0.0 | 63.28
Neigh   | 7.1626e-05 | 7.1626e-05 | 7.1626e-05 |   0.0 |  0.32
Comm    | 1.2279e-05 | 1.2279e-05 | 1.2279e-05 |   0.0 |  0.05
Output  | 0.0079939  | 0.0079939  | 0.0079939  |   0.0 | 35.79
Modify  | 7.0558e-05 | 7.0558e-05 | 7.0558e-05 |   0.0 |  0.32
Other   |            | 5.333e-05  |            |       |  0.24

Nlocal:             60 ave          60 max          60 min
Histogram: 1 0 0 0 0 0 0 0 0 0
Nghost:              0 ave           0 max           0 min
Histogram: 1 0 0 0 0 0 0 0 0 0
Neighs:              0 ave           0 max           0 min
Histogram: 1 0 0 0 0 0 0 0 0 0
FullNghs:         3540 ave        3540 max        3540 min
Histogram: 1 0 0 0 0 0 0 0 0 0

Total # of neighbors = 3540
Ave neighs/atom = 59
Neighbor list builds = 3
Dangerous builds = 0




# run 10


# run as: lmp_serial < graphene_sheet.in
Total wall time: 0:00:00
