LAMMPS (23 Jun 2022)
units metal
newton on #newtons 3rd law for pairs

boundary m m m

atom_style atomic # coarse-grain liquids, solids, metals
read_data ./lammps_sheet # read lattice from file
Reading data file ...
  orthogonal box = (0 0 0) to (6.9190243 2 8.52)
  1 by 1 by 1 MPI processor grid
  reading atoms ...
  20 atoms
  read_data CPU = 0.001 seconds


# # --- Dynamics --- ##
variable temp equal 5.0

mass * 12.0107 # "*": all types, [grams/mole]
velocity all create ${temp} 5432373 dist gaussian
velocity all create 5 5432373 dist gaussian

neighbor            0.5 bin
neigh_modify        delay 0 every 1

pair_style          airebo 6.4 1 1  # cutoff LJ_flag TORSION_flag cutoff_min
pair_coeff          * * CH.airebo C # add H ofr hydrogren as2nd particle
Reading airebo potential file CH.airebo with DATE: 2011-10-25

fix                 nve all nve # (microcanonical)
timestep            0.0005

thermo              1

dump 1 all custom 1 sheet.data id type x y z vx vy vz
run 100
Neighbor list info ...
  update every 1 steps, delay 0 steps, check yes
  max neighbors/atom: 2000, page size: 100000
  master list distance cutoff = 22.26
  ghost atom cutoff = 22.26
  binsize = 11.13, bins = 1 1 1
  1 neighbor lists, perpetual/occasional/extra = 1 0 0
  (1) pair airebo, perpetual
      attributes: full, newton on, ghost
      pair build: full/bin/ghost
      stencil: full/ghost/bin/3d
      bin: standard
Per MPI rank memory allocation (min/avg/max) = 5.022 | 5.022 | 5.022 Mbytes
   Step          Temp          E_pair         E_mol          TotEng         Press          Volume    
         0   5             -119.20515      0             -119.19287     -125742.09      117.91196    
         1   7.4115273     -119.21109      0             -119.19289     -125329.23      117.91196    
         2   13.882188     -119.22703      0             -119.19294     -124041         117.91196    
         3   24.104337     -119.25221      0             -119.19301     -121870.6       117.91196    
         4   37.591846     -119.28544      0             -119.19311     -118809.13      117.91196    
         5   53.700608     -119.32512      0             -119.19323     -114847.44      117.91196    
         6   71.656262     -119.36935      0             -119.19337     -109978.38      117.91196    
         7   90.589064     -119.416        0             -119.19351     -104199.72      117.91196    
         8   109.57549     -119.46277      0             -119.19366     -97517.241      117.91196    
         9   127.68555     -119.50739      0             -119.1938      -89948.128      117.91196    
        10   144.0341      -119.54767      0             -119.19393     -81524.352      117.91196    
        11   157.83329     -119.58167      0             -119.19404     -72295.785      117.91196    
        12   168.44293     -119.6078       0             -119.19411     -62332.801      117.91196    
        13   175.41454     -119.62496      0             -119.19415     -51728.057      117.91196    
        14   178.52501     -119.63261      0             -119.19416     -40597.159      117.91196    
        15   177.79589     -119.63078      0             -119.19412     -29077.985      117.91196    
        16   173.49517     -119.62015      0             -119.19405     -17328.492      117.91196    
        17   166.11964     -119.60193      0             -119.19395     -5522.9185      117.91196    
        18   156.35746     -119.57784      0             -119.19383      6153.4566      117.91196    
        19   145.03265     -119.54989      0             -119.1937       17510.916      117.91196    
        20   133.03504     -119.52029      0             -119.19357      28362.759      117.91196    
        21   121.24151     -119.49121      0             -119.19345      38533.2        117.91196    
        22   110.43622     -119.46458      0             -119.19335      47865.054      117.91196    
        23   101.23844     -119.44193      0             -119.19329      56226.529      117.91196    
        24   94.04761      -119.42425      0             -119.19327      63516.426      117.91196    
        25   89.014164     -119.4119       0             -119.19329      69667.175      117.91196    
        26   86.041955     -119.40466      0             -119.19334      74645.28       117.91196    
        27   84.824221     -119.40174      0             -119.19342      78449.093      117.91196    
        28   84.909321     -119.40203      0             -119.1935       81104.179      117.91196    
        29   85.786986     -119.40427      0             -119.19358      82656.907      117.91196    
        30   86.981199     -119.40726      0             -119.19364      83167.215      117.91196    
        31   88.133582     -119.41012      0             -119.19367      82701.659      117.91196    
        32   89.06219      -119.41239      0             -119.19366      81327.785      117.91196    
        33   89.784717     -119.41414      0             -119.19363      79110.655      117.91196    
        34   90.501677     -119.41584      0             -119.19358      76111.903      117.91196    
        35   91.542772     -119.41834      0             -119.19351      72391.241      117.91196    
        36   93.286742     -119.42256      0             -119.19346      68009.834      117.91196    
        37   96.069973     -119.42936      0             -119.19342      63034.629      117.91196    
        38   100.10106     -119.43926      0             -119.19341      57542.54       117.91196    
        39   105.39673     -119.45229      0             -119.19344      51623.49       117.91196    
        40   111.75033     -119.46796      0             -119.19351      45381.516      117.91196    
        41   118.73806     -119.48522      0             -119.1936       38933.542      117.91196    
        42   125.76127     -119.50257      0             -119.19371      32405.842      117.91196    
        43   132.11736     -119.51829      0             -119.19382      25928.626      117.91196    
        44   137.08766     -119.5306       0             -119.19392      19629.446      117.91196    
        45   140.02948     -119.5379       0             -119.194        13626.291      117.91196    
        46   140.45941     -119.53899      0             -119.19403      8021.2088      117.91196    
        47   138.11748     -119.53324      0             -119.19403      2895.2243      117.91196    
        48   133.00492     -119.52064      0             -119.19399     -1694.9174      117.91196    
        49   125.39161     -119.50186      0             -119.19391     -5717.8585      117.91196    
        50   115.79358     -119.47817      0             -119.19379     -9166.5596      117.91196    
        51   104.92386     -119.45135      0             -119.19366     -12055.262      117.91196    
        52   93.623159     -119.42345      0             -119.19352     -14414.877      117.91196    
        53   82.778921     -119.39669      0             -119.19338     -16287.364      117.91196    
        54   73.24223      -119.37315      0             -119.19327     -17719.776      117.91196    
        55   65.75234      -119.35466      0             -119.19318     -18758.606      117.91196    
        56   60.876812     -119.34263      0             -119.19312     -19445.028      117.91196    
        57   58.973047     -119.33794      0             -119.1931      -19811.434      117.91196    
        58   60.172586     -119.3409       0             -119.19311     -19879.512      117.91196    
        59   64.386961     -119.35129      0             -119.19316     -19659.767      117.91196    
        60   71.333331     -119.36841      0             -119.19322     -19152.377      117.91196    
        61   80.572711     -119.39119      0             -119.19331     -18349.063      117.91196    
        62   91.552422     -119.41825      0             -119.1934      -17235.488      117.91196    
        63   103.64766     -119.44805      0             -119.1935      -15793.919      117.91196    
        64   116.19897     -119.47898      0             -119.1936      -14005.881      117.91196    
        65   128.54318     -119.50939      0             -119.1937      -11854.67       117.91196    
        66   140.03801     -119.53771      0             -119.19379     -9327.5991      117.91196    
        67   150.0875      -119.56248      0             -119.19387     -6418.2512      117.91196    
        68   158.1669      -119.58238      0             -119.19394     -3128.6798      117.91196    
        69   163.84406     -119.59638      0             -119.19399      528.7624       117.91196    
        70   166.79894     -119.60367      0             -119.19402      4529.7973      117.91196    
        71   166.84198     -119.60378      0             -119.19402      8837.0606      117.91196    
        72   163.93392     -119.59662      0             -119.19401      13398.984      117.91196    
        73   158.19471     -119.58248      0             -119.19397      18149.794      117.91196    
        74   149.89643     -119.56204      0             -119.1939       23010.611      117.91196    
        75   139.44469     -119.53629      0             -119.19383      27891.478      117.91196    
        76   127.35065     -119.5065       0             -119.19374      32694.196      117.91196    
        77   114.19658     -119.4741       0             -119.19364      37315.731      117.91196    
        78   100.59937     -119.44061      0             -119.19355      41651.883      117.91196    
        79   87.175784     -119.40756      0             -119.19346      45600.926      117.91196    
        80   74.512469     -119.37637      0             -119.19338      49066.958      117.91196    
        81   63.142047     -119.34838      0             -119.19331      51962.814      117.91196    
        82   53.525165     -119.3247       0             -119.19325      54212.475      117.91196    
        83   46.036179     -119.30627      0             -119.19321      55752.985      117.91196    
        84   40.949514     -119.29375      0             -119.19318      56536.133      117.91196    
        85   38.432195     -119.28756      0             -119.19317      56529.47       117.91196    
        86   38.543702     -119.28784      0             -119.19318      55716.696      117.91196    
        87   41.23721      -119.29448      0             -119.1932       54097.703      117.91196    
        88   46.362852     -119.30711      0             -119.19324      51688.221      117.91196    
        89   53.673578     -119.32511      0             -119.19329      48519.073      117.91196    
        90   62.834235     -119.34767      0             -119.19336      44635.051      117.91196    
        91   73.434365     -119.37378      0             -119.19343      40093.417      117.91196    
        92   85.004945     -119.40227      0             -119.1935       34962.069      117.91196    
        93   97.038811     -119.43191      0             -119.19358      29317.438      117.91196    
        94   109.01391     -119.46139      0             -119.19366      23242.233      117.91196    
        95   120.4179      -119.48947      0             -119.19373      16823.133      117.91196    
        96   130.77228     -119.51497      0             -119.1938       10148.591      117.91196    
        97   139.65401     -119.53683      0             -119.19385      3306.8492      117.91196    
        98   146.71332     -119.55421      0             -119.19389     -3615.734       117.91196    
        99   151.68673     -119.56645      0             -119.19391     -10536.045      117.91196    
       100   154.40556     -119.57313      0             -119.19392     -17375.281      117.91196    
Loop time of 0.00701084 on 1 procs for 100 steps with 20 atoms

Performance: 616.189 ns/day, 0.039 hours/ns, 14263.626 timesteps/s
82.1% CPU use with 1 MPI tasks x no OpenMP threads

MPI task timing breakdown:
Section |  min time  |  avg time  |  max time  |%varavg| %total
---------------------------------------------------------------
Pair    | 0.0029656  | 0.0029656  | 0.0029656  |   0.0 | 42.30
Neigh   | 0          | 0          | 0          |   0.0 |  0.00
Comm    | 1.2057e-05 | 1.2057e-05 | 1.2057e-05 |   0.0 |  0.17
Output  | 0.0039611  | 0.0039611  | 0.0039611  |   0.0 | 56.50
Modify  | 3.7562e-05 | 3.7562e-05 | 3.7562e-05 |   0.0 |  0.54
Other   |            | 3.448e-05  |            |       |  0.49

Nlocal:             20 ave          20 max          20 min
Histogram: 1 0 0 0 0 0 0 0 0 0
Nghost:              0 ave           0 max           0 min
Histogram: 1 0 0 0 0 0 0 0 0 0
Neighs:              0 ave           0 max           0 min
Histogram: 1 0 0 0 0 0 0 0 0 0
FullNghs:          380 ave         380 max         380 min
Histogram: 1 0 0 0 0 0 0 0 0 0

Total # of neighbors = 380
Ave neighs/atom = 19
Neighbor list builds = 0
Dangerous builds = 0




# run 10


# run as: lmp_serial < graphene_sheet.in
Total wall time: 0:00:00
