LAMMPS (23 Jun 2022)
units metal
newton on #newtons 3rd law for pairs

boundary m m m

atom_style atomic # coarse-grain liquids, solids, metals
read_data ./lammps_sheet # read lattice from file
Reading data file ...
  orthogonal box = (0 0 0) to (40.122438 34.08 2)
  1 by 1 by 1 MPI processor grid
  reading atoms ...
  512 atoms
  read_data CPU = 0.002 seconds


# # --- Dynamics --- ##
variable temp equal 5.0

mass * 12.0107 # "*": all types, [grams/mole]
velocity all create ${temp} 5432373 dist gaussian
velocity all create 5 5432373 dist gaussian

neighbor            0.5 bin
neigh_modify        delay 0 every 1

pair_style          airebo 6.4 1 1  # cutoff LJ_flag TORSION_flag cutoff_min
pair_coeff          * * CH.airebo C # add H ofr hydrogren as2nd particle
Reading airebo potential file CH.airebo with DATE: 2011-10-25

fix                 nve all nve # (microcanonical)
timestep            0.0005

thermo              1

dump 1 all custom 1 sheet.data id type x y z vx vy vz
run 100
Neighbor list info ...
  update every 1 steps, delay 0 steps, check yes
  max neighbors/atom: 2000, page size: 100000
  master list distance cutoff = 22.26
  ghost atom cutoff = 22.26
  binsize = 11.13, bins = 4 4 1
  1 neighbor lists, perpetual/occasional/extra = 1 0 0
  (1) pair airebo, perpetual
      attributes: full, newton on, ghost
      pair build: full/bin/ghost
      stencil: full/ghost/bin/3d
      bin: standard
Per MPI rank memory allocation (min/avg/max) = 5.538 | 5.538 | 5.538 Mbytes
   Step          Temp          E_pair         E_mol          TotEng         Press          Volume    
         0   5             -3632.4907      0             -3632.1604     -187838.77      2735.0189    
         1   5.3614824     -3632.5146      0             -3632.1605     -187742.87      2735.0189    
         2   6.7454082     -3632.6063      0             -3632.1608     -187410.26      2735.0189    
         3   9.084401      -3632.7613      0             -3632.1613     -186839.08      2735.0189    
         4   12.263491     -3632.9719      0             -3632.1619     -186026.3       2735.0189    
         5   16.125243     -3633.2278      0             -3632.1627     -184968.21      2735.0189    
         6   20.47724      -3633.5162      0             -3632.1636     -183661.24      2735.0189    
         7   25.101975     -3633.8226      0             -3632.1646     -182102.78      2735.0189    
         8   29.769119     -3634.1319      0             -3632.1656     -180292.36      2735.0189    
         9   34.249833     -3634.4288      0             -3632.1665     -178232.74      2735.0189    
        10   38.332537     -3634.6992      0             -3632.1673     -175931.12      2735.0189    
        11   41.839131     -3634.9315      0             -3632.1679     -173400.16      2735.0189    
        12   44.64026      -3635.1168      0             -3632.1682     -170658.88      2735.0189    
        13   46.667901     -3635.2508      0             -3632.1683     -167733.02      2735.0189    
        14   47.92329      -3635.3335      0             -3632.168      -164655.04      2735.0189    
        15   48.478291     -3635.3696      0             -3632.1675     -161463.36      2735.0189    
        16   48.468694     -3635.3682      0             -3632.1668     -158200.9       2735.0189    
        17   48.078853     -3635.3416      0             -3632.1659     -154913.01      2735.0189    
        18   47.518414     -3635.3038      0             -3632.1651     -151644.73      2735.0189    
        19   46.993611     -3635.2684      0             -3632.1644     -148437.82      2735.0189    
        20   46.677237     -3635.247       0             -3632.1639     -145327.93      2735.0189    
        21   46.682492     -3635.2473      0             -3632.1638     -142342.16      2735.0189    
        22   47.045911     -3635.2715      0             -3632.164      -139497.67      2735.0189    
        23   47.723366     -3635.3167      0             -3632.1645     -136801.49      2735.0189    
        24   48.600672     -3635.3754      0             -3632.1652     -134251.64      2735.0189    
        25   49.517076     -3635.4366      0             -3632.1659     -131839.35      2735.0189    
        26   50.297306     -3635.4889      0             -3632.1666     -129552.11      2735.0189    
        27   50.786116     -3635.5216      0             -3632.1671     -127376.92      2735.0189    
        28   50.878989     -3635.5279      0             -3632.1672     -125303.27      2735.0189    
        29   50.543641     -3635.5056      0             -3632.1671     -123325.28      2735.0189    
        30   49.828822     -3635.4578      0             -3632.1665     -121442.88      2735.0189    
        31   48.85927      -3635.393       0             -3632.1658     -119661.7       2735.0189    
        32   47.817904     -3635.3233      0             -3632.1649     -117991.84      2735.0189    
        33   46.918377     -3635.263       0             -3632.164      -116445.85      2735.0189    
        34   46.372593     -3635.2262      0             -3632.1632     -115036.17      2735.0189    
        35   46.358516     -3635.2248      0             -3632.1628     -113772.49      2735.0189    
        36   46.993379     -3635.2666      0             -3632.1626     -112659.59      2735.0189    
        37   48.31648      -3635.3542      0             -3632.1628     -111695.8       2735.0189    
        38   50.283775     -3635.4846      0             -3632.1633     -110872.46      2735.0189    
        39   52.774442     -3635.6499      0             -3632.1641     -110174.33      2735.0189    
        40   55.607812     -3635.838       0             -3632.165      -109580.9       2735.0189    
        41   58.567421     -3636.0344      0             -3632.1659     -109068.24      2735.0189    
        42   61.428334     -3636.2242      0             -3632.1668     -108611.26      2735.0189    
        43   63.983824     -3636.3937      0             -3632.1674     -108185.95      2735.0189    
        44   66.067842     -3636.5318      0             -3632.1679     -107771.35      2735.0189    
        45   67.571122     -3636.6313      0             -3632.1681     -107351.03      2735.0189    
        46   68.449516     -3636.6892      0             -3632.168      -106913.91      2735.0189    
        47   68.724518     -3636.707       0             -3632.1676     -106454.46      2735.0189    
        48   68.477198     -3636.6901      0             -3632.1671     -105972.27      2735.0189    
        49   67.836183     -3636.6471      0             -3632.1664     -105471.09      2735.0189    
        50   66.961324     -3636.5886      0             -3632.1657     -104957.46      2735.0189    
        51   66.024716     -3636.5261      0             -3632.165      -104439.13      2735.0189    
        52   65.19081      -3636.4704      0             -3632.1644     -103923.37      2735.0189    
        53   64.598286     -3636.4309      0             -3632.164      -103415.45      2735.0189    
        54   64.345711     -3636.414       0             -3632.1638     -102917.48      2735.0189    
        55   64.482663     -3636.423       0             -3632.1638     -102427.64      2735.0189    
        56   65.007149     -3636.4579      0             -3632.164      -101940         2735.0189    
        57   65.869269     -3636.5152      0             -3632.1644     -101444.93      2735.0189    
        58   66.980506     -3636.5891      0             -3632.1649     -100929.91      2735.0189    
        59   68.227424     -3636.6719      0             -3632.1654     -100380.79      2735.0189    
        60   69.487928     -3636.7557      0             -3632.1658     -99783.25       2735.0189    
        61   70.647881     -3636.8326      0             -3632.1662     -99124.246      2735.0189    
        62   71.615994     -3636.8968      0             -3632.1665     -98393.344      2735.0189    
        63   72.33524      -3636.9444      0             -3632.1665     -97583.698      2735.0189    
        64   72.789598     -3636.9743      0             -3632.1664     -96692.596      2735.0189    
        65   73.005369     -3636.9883      0             -3632.1661     -95721.531      2735.0189    
        66   73.047048     -3636.9906      0             -3632.1657     -94675.749      2735.0189    
        67   73.008447     -3636.9876      0             -3632.1653     -93563.409      2735.0189    
        68   72.999879     -3636.9866      0             -3632.1648     -92394.371      2735.0189    
        69   73.132918     -3636.9949      0             -3632.1644     -91178.825      2735.0189    
        70   73.504541     -3637.0192      0             -3632.1641     -89925.891      2735.0189    
        71   74.182862     -3637.0639      0             -3632.164      -88642.399      2735.0189    
        72   75.196421     -3637.1309      0             -3632.164      -87331.999      2735.0189    
        73   76.528237     -3637.2191      0             -3632.1643     -85994.724      2735.0189    
        74   78.115346     -3637.3244      0             -3632.1647     -84627.043      2735.0189    
        75   79.854044     -3637.4398      0             -3632.1653     -83222.457      2735.0189    
        76   81.610334     -3637.5564      0             -3632.1659     -81772.544      2735.0189    
        77   83.234684     -3637.6644      0             -3632.1665     -80268.383      2735.0189    
        78   84.579773     -3637.7537      0             -3632.1671     -78702.188      2735.0189    
        79   85.519043     -3637.8162      0             -3632.1675     -77068.976      2735.0189    
        80   85.963825     -3637.8457      0             -3632.1676     -75368.054      2735.0189    
        81   85.876829     -3637.8399      0             -3632.1676     -73604.131      2735.0189    
        82   85.280103     -3637.8002      0             -3632.1672     -71787.886      2735.0189    
        83   84.256577     -3637.732       0             -3632.1667     -69935.922      2735.0189    
        84   82.94438      -3637.6446      0             -3632.1659     -68070.024      2735.0189    
        85   81.523492     -3637.5499      0             -3632.1651     -66215.714      2735.0189    
        86   80.195703     -3637.4614      0             -3632.1643     -64400.243      2735.0189    
        87   79.160872     -3637.3923      0             -3632.1636     -62650.254      2735.0189    
        88   78.592319     -3637.3542      0             -3632.1631     -60989.397      2735.0189    
        89   78.613908     -3637.3554      0             -3632.1628     -59436.128      2735.0189    
        90   79.282616     -3637.3997      0             -3632.1629     -58002.01       2735.0189    
        91   80.579711     -3637.4857      0             -3632.1633     -56690.792      2735.0189    
        92   82.411856     -3637.6074      0             -3632.164      -55498.346      2735.0189    
        93   84.622029     -3637.7543      0             -3632.1648     -54418.921      2734.7454    
        94   87.009049     -3637.9128      0             -3632.1657     -53424.873      2734.7454    
        95   89.352643     -3638.0685      0             -3632.1666     -52501.741      2734.7454    
        96   91.440571     -3638.2072      0             -3632.1674     -51628.537      2734.7454    
        97   93.094613     -3638.317       0             -3632.1679     -50785.619      2734.7454    
        98   94.192174     -3638.3897      0             -3632.1681     -49956.707      2734.7454    
        99   94.680495     -3638.4218      0             -3632.168      -49130.328      2734.7454    
       100   94.581788     -3638.4149      0             -3632.1676     -48300.512      2734.7454    
Loop time of 0.475413 on 1 procs for 100 steps with 512 atoms

Performance: 9.087 ns/day, 2.641 hours/ns, 210.343 timesteps/s
97.6% CPU use with 1 MPI tasks x no OpenMP threads

MPI task timing breakdown:
Section |  min time  |  avg time  |  max time  |%varavg| %total
---------------------------------------------------------------
Pair    | 0.40794    | 0.40794    | 0.40794    |   0.0 | 85.81
Neigh   | 0.0014356  | 0.0014356  | 0.0014356  |   0.0 |  0.30
Comm    | 4.5714e-05 | 4.5714e-05 | 4.5714e-05 |   0.0 |  0.01
Output  | 0.065151   | 0.065151   | 0.065151   |   0.0 | 13.70
Modify  | 0.00060197 | 0.00060197 | 0.00060197 |   0.0 |  0.13
Other   |            | 0.0002385  |            |       |  0.05

Nlocal:            512 ave         512 max         512 min
Histogram: 1 0 0 0 0 0 0 0 0 0
Nghost:              0 ave           0 max           0 min
Histogram: 1 0 0 0 0 0 0 0 0 0
Neighs:              0 ave           0 max           0 min
Histogram: 1 0 0 0 0 0 0 0 0 0
FullNghs:       166132 ave      166132 max      166132 min
Histogram: 1 0 0 0 0 0 0 0 0 0

Total # of neighbors = 166132
Ave neighs/atom = 324.47656
Neighbor list builds = 1
Dangerous builds = 0




# run 10


# run as: lmp_serial < graphene_sheet.in
Total wall time: 0:00:00
