ITEM: TIMESTEP
0
ITEM: NUMBER OF ATOMS
60
ITEM: BOX BOUNDS mm mm mm
0.0000000000000000e+00 1.3230000000000000e+01
-1.7216585027234640e-03 1.7216585027234640e+01
0.0000000000000000e+00 4.0000000000000000e+00
ITEM: ATOMS id type x y z vx vy vz
1 1 2 0 2 -1.12207 0.0579942 0.168011
2 1 2.71 1.22976 2 0.354991 0.0750601 0.0647306
3 1 2 2.45951 2 -0.110305 0.373831 -1.06135
4 1 2.71 6.14878 2 -1.05759 -0.217533 -1.05448
5 1 2 7.37854 2 0.461069 0.842194 -0.159155
6 1 2.71 8.60829 2 0.0617616 -0.260852 0.869056
7 1 2 9.83805 2 1.29609 1.07511 0.379102
8 1 2.71 11.0678 2 -0.5183 0.861193 0.481401
9 1 2 12.2976 2 0.532341 0.195043 -0.0381436
10 1 2.71 13.5273 2 -0.0244237 0.328159 0.150716
11 1 2 14.7571 2 0.764496 -0.472233 0.480783
12 1 2.71 15.9868 2 0.203129 0.0866538 0.176513
13 1 4.84 0 2 0.862996 -0.77168 -0.415068
14 1 4.13 1.22976 2 -0.113157 0.0973296 -0.845271
15 1 4.84 2.45951 2 -0.604064 0.0156535 0.0469242
16 1 4.13 3.68927 2 -1.4547 -0.765417 -0.2212
17 1 4.84 7.37854 2 0.163353 0.131882 -0.0989635
18 1 4.13 8.60829 2 0.0559022 -0.0179499 -0.177978
19 1 4.84 9.83805 2 0.453663 -0.0264417 0.150364
20 1 4.13 11.0678 2 0.249693 -0.0653067 0.566269
21 1 4.84 12.2976 2 -0.288227 0.939157 -0.451519
22 1 4.13 13.5273 2 0.388751 0.258701 0.0612943
23 1 4.84 14.7571 2 -1.30653 0.148841 -0.0492453
24 1 4.13 15.9868 2 -1.18881 0.463649 -0.590585
25 1 6.26 0 2 0.156693 -0.763174 -0.911677
26 1 6.97 1.22976 2 1.16027 -0.468419 0.46268
27 1 6.26 2.45951 2 -1.25433 -0.436821 1.19195
28 1 6.97 3.68927 2 -0.258932 -0.0582281 0.698217
29 1 6.26 4.91902 2 0.933835 0.500458 0.481454
30 1 6.97 8.60829 2 0.88395 -0.428663 -0.173107
31 1 6.26 9.83805 2 -0.319766 -0.641685 -0.53696
32 1 6.97 11.0678 2 -0.402755 -0.922145 -0.186
33 1 6.26 12.2976 2 0.284118 0.750175 0.162416
34 1 6.97 13.5273 2 -0.576859 -0.929682 -0.0733201
35 1 6.26 14.7571 2 0.0675453 0.305026 0.26558
36 1 6.97 15.9868 2 -0.187821 0.811167 -0.575771
37 1 9.1 0 2 -0.586374 0.561827 -0.251294
38 1 8.39 1.22976 2 0.810324 0.14077 -0.852758
39 1 9.1 2.45951 2 -0.127412 0.363909 -0.524055
40 1 8.39 3.68927 2 0.493892 -0.186758 0.379391
41 1 9.1 4.91902 2 0.709351 -0.926058 0.68827
42 1 8.39 6.14878 2 -0.369138 -0.60561 0.556306
43 1 9.1 9.83805 2 -0.168258 0.279038 0.425058
44 1 8.39 11.0678 2 0.740389 0.784601 0.315655
45 1 9.1 12.2976 2 -0.510661 1.22033 -0.19085
46 1 8.39 13.5273 2 0.0624004 0.147138 0.254951
47 1 9.1 14.7571 2 0.0328201 0.115361 -0.767897
48 1 8.39 15.9868 2 0.12289 0.327901 0.348521
49 1 10.52 0 2 0.292034 -1.63653 0.525632
50 1 11.23 1.22976 2 -0.512301 0.937592 0.205453
51 1 10.52 2.45951 2 0.206247 0.0436586 0.313636
52 1 11.23 3.68927 2 0.608335 0.18634 -0.140732
53 1 10.52 4.91902 2 -0.291702 -1.07768 1.0008
54 1 11.23 6.14878 2 0.255551 0.223117 -1.13608
55 1 10.52 7.37854 2 -0.462589 0.208098 0.250915
56 1 11.23 11.0678 2 -0.533132 -0.941713 0.0516004
57 1 10.52 12.2976 2 -0.325964 -0.117902 -1.32168
58 1 11.23 13.5273 2 0.31889 -0.123783 0.578046
59 1 10.52 14.7571 2 0.238569 -0.642966 -0.401792
60 1 11.23 15.9868 2 0.44983 -0.351737 0.455232
ITEM: TIMESTEP
1
ITEM: NUMBER OF ATOMS
60
ITEM: BOX BOUNDS mm mm mm
0.0000000000000000e+00 1.3230000000000000e+01
-1.7216585027234640e-03 1.7216585027234640e+01
0.0000000000000000e+00 4.0000000000000000e+00
ITEM: ATOMS id type x y z vx vy vz
1 1 1.99958 0.000277901 2.00008 -0.545242 1.05336 0.168112
2 1 2.70999 1.22979 2.00003 -0.405004 0.0755032 0.0639934
3 1 2.00009 2.45945 1.99947 0.465669 -0.620758 -1.06101
4 1 2.70921 6.14891 1.99947 -2.08545 0.728636 -1.05428
5 1 2.00059 7.37869 1.99992 1.89642 -0.242006 -0.159235
6 1 2.70993 8.60816 2.00043 -0.356063 -0.253861 0.868577
7 1 2.00085 9.83859 2.00019 2.1071 1.0705 0.379292
8 1 2.70964 11.0682 2.00024 -0.930039 0.860396 0.48136
9 1 2.00047 12.2977 1.99998 1.34402 0.1975 -0.038064
10 1 2.70988 13.5275 2.00008 -0.440637 0.323482 0.150735
11 1 2.00055 14.757 2.00024 1.41892 0.0982575 0.480723
12 1 2.71016 15.9868 2.00009 0.448253 -0.346791 0.176471
13 1 4.84064 -0.000314818 1.99979 1.67692 -0.482099 -0.41522
14 1 4.12982 1.22982 1.99958 -0.622205 0.146443 -0.844757
15 1 4.8396 2.45969 2.00002 -0.98194 0.672872 0.0470015
16 1 4.12942 3.68864 1.99989 -0.879999 -1.75784 -0.221149
17 1 4.83994 7.37885 1.99995 -0.408483 1.12698 -0.0990334
18 1 4.13012 8.60812 1.99991 0.436911 -0.672232 -0.1776
19 1 4.84023 9.83804 2.00008 0.452363 -0.026219 0.150195
20 1 4.13013 11.0678 2.00028 0.249764 -0.0613916 0.56586
21 1 4.83986 12.298 1.99977 -0.282972 0.933526 -0.450976
22 1 4.1302 13.5274 2.00003 0.385758 0.256103 0.0611475
23 1 4.83948 14.7571 1.99998 -0.784372 0.0967508 -0.0492236
24 1 4.1292 15.987 1.9997 -1.99895 0.176474 -0.590449
25 1 6.25987 -0.000310314 1.99954 -0.655075 -0.47471 -0.911457
26 1 6.97071 1.22954 2.00023 1.66717 -0.412934 0.462275
27 1 6.25937 2.45929 2.0006 -1.24613 -0.434758 1.19139
28 1 6.96978 3.6894 2.00035 -0.635608 0.596221 0.698256
29 1 6.26061 4.91903 2.00024 1.50807 -0.494543 0.481537
30 1 6.9703 8.60833 1.99991 0.307673 0.567817 -0.173281
31 1 6.25994 9.83756 1.99973 0.0622987 -1.29746 -0.53652
32 1 6.9698 11.0673 1.99991 -0.400722 -0.915831 -0.185925
33 1 6.26014 12.2979 2.00008 0.279638 0.741006 0.162147
34 1 6.96971 13.5269 1.99996 -0.572977 -0.922713 -0.0731685
35 1 6.2599 14.7572 2.00013 -0.448651 0.248098 0.265407
36 1 6.97011 15.9872 1.99971 0.629536 0.522806 -0.575642
37 1 9.09991 0.000352216 1.99987 0.235201 0.84365 -0.251361
38 1 8.39028 1.22984 1.99957 0.293294 0.198284 -0.852179
39 1 9.09994 2.45969 1.99974 -0.125634 0.362791 -0.52385
40 1 8.39025 3.68917 2.00019 0.486656 -0.186308 0.379383
41 1 9.10026 4.91873 2.00034 0.324567 -0.267015 0.688127
42 1 8.38996 6.14823 2.00028 0.204454 -1.60277 0.556403
43 1 9.09977 9.83844 2.00021 -0.742135 1.27403 0.425113
44 1 8.39046 11.068 2.00016 1.11119 0.127515 0.315397
45 1 9.09974 12.2982 1.9999 -0.509686 1.21485 -0.190896
46 1 8.39003 13.5274 2.00013 0.055621 0.148535 0.254534
47 1 9.10014 14.7571 1.99962 0.545222 0.0609946 -0.767413
48 1 8.38986 15.9869 2.00017 -0.696672 0.0412529 0.348328
49 1 10.5201 -0.000709819 2.00026 0.041049 -1.19742 0.525535
50 1 11.2296 1.23008 2.0001 -1.16862 0.361788 0.205536
51 1 10.5202 2.45953 2.00016 0.623807 0.0481384 0.313403
52 1 11.2301 3.68936 1.99993 -0.204174 0.182216 -0.140419
53 1 10.52 4.91849 2.0005 0.132462 -1.06922 1.00011
54 1 11.2298 6.14916 1.99943 -1.18503 1.29864 -1.13524
55 1 10.52 7.3784 2.00013 0.565581 -0.737698 0.250473
56 1 11.2296 11.0676 2.00003 -1.10952 0.0540539 0.05098
57 1 10.52 12.2972 1.99934 0.261629 -1.24605 -1.32048
58 1 11.23 13.5273 2.00029 -0.495535 -0.127522 0.577563
59 1 10.5203 14.757 1.9998 0.825704 0.486357 -0.401434
60 1 11.2301 15.9864 2.00023 -0.125406 -1.34567 0.454903
ITEM: TIMESTEP
2
ITEM: NUMBER OF ATOMS
60
ITEM: BOX BOUNDS mm mm mm
0.0000000000000000e+00 1.3230000000000000e+01
-1.7216585027234640e-03 1.7216585027234640e+01
0.0000000000000000e+00 4.0000000000000000e+00
ITEM: ATOMS id type x y z vx vy vz
1 1 1.99945 0.00105336 2.00017 0.0299702 2.04422 0.168417
2 1 2.70959 1.22983 2.00006 -1.16118 0.0738456 0.0617862
3 1 2.00047 2.45889 1.99894 1.03821 -1.60947 -1.06001
4 1 2.70791 6.14951 1.99895 -3.10515 1.66279 -1.0537
5 1 2.0019 7.37829 1.99984 3.31855 -1.31899 -0.159468
6 1 2.70964 8.60804 2.00087 -0.763213 -0.238326 0.867141
7 1 2.00211 9.83912 2.00038 2.90892 1.05302 0.379859
8 1 2.70907 11.0687 2.00048 -1.3199 0.856673 0.481239
9 1 2.00134 12.2978 1.99996 2.14618 0.206481 -0.0378279
10 1 2.70956 13.5276 2.00015 -0.844156 0.315658 0.150792
11 1 2.00142 14.7572 2.00048 2.06457 0.670871 0.480544
12 1 2.71045 15.9865 2.00018 0.678696 -0.77651 0.17635
13 1 4.84168 -0.000482099 1.99958 2.46529 -0.179823 -0.415674
14 1 4.12938 1.2299 1.99916 -1.12096 0.184297 -0.843216
15 1 4.83902 2.46019 2.00005 -1.35541 1.31521 0.0472327
16 1 4.12912 3.68751 1.99978 -0.310761 -2.73837 -0.220998
17 1 4.83959 7.37966 1.9999 -0.97444 2.11126 -0.0992429
18 1 4.13044 8.60762 1.99982 0.809441 -1.31258 -0.176463
19 1 4.84045 9.83802 2.00015 0.444996 -0.0297364 0.149686
20 1 4.13025 11.0677 2.00057 0.245118 -0.0527601 0.564633
21 1 4.83972 12.2985 1.99955 -0.272076 0.917701 -0.449345
22 1 4.13039 13.5276 2.00006 0.370807 0.254241 0.060709
23 1 4.83922 14.7572 1.99995 -0.259482 0.0544555 -0.0491608
24 1 4.128 15.987 1.99941 -2.78679 -0.115391 -0.590044
25 1 6.25934 -0.00047471 1.99909 -1.44319 -0.17784 -0.910797
26 1 6.97167 1.22934 2.00046 2.14959 -0.35748 0.461061
27 1 6.25875 2.45908 2.00119 -1.22438 -0.431168 1.18969
28 1 6.96936 3.68986 2.0007 -1.00127 1.23426 0.698375
29 1 6.26151 4.91853 2.00048 2.07502 -1.4793 0.481785
30 1 6.97031 8.60886 1.99983 -0.265346 1.5561 -0.173801
31 1 6.26006 9.83675 1.99946 0.444018 -1.94223 -0.535202
32 1 6.9696 11.0669 1.99981 -0.391884 -0.900537 -0.185698
33 1 6.26028 12.2983 2.00016 0.267513 0.712843 0.16134
34 1 6.96943 13.5264 1.99993 -0.559786 -0.896636 -0.0727143
35 1 6.25955 14.7573 2.00027 -0.960812 0.191847 0.264884
36 1 6.97063 15.9874 1.99942 1.43366 0.22785 -0.575259
37 1 9.10024 0.00084365 1.99975 1.05701 1.12002 -0.251563
38 1 8.39029 1.22995 1.99915 -0.217225 0.258455 -0.850447
39 1 9.09987 2.45987 1.99948 -0.116285 0.357037 -0.523236
40 1 8.39049 3.68908 2.00038 0.468386 -0.183499 0.379363
41 1 9.10032 4.91876 2.00069 -0.0593465 0.38672 0.687699
42 1 8.3902 6.14718 2.00056 0.775662 -2.59366 0.556691
43 1 9.09926 9.83932 2.00043 -1.30872 2.25957 0.425276
44 1 8.39111 11.0679 2.00032 1.46356 -0.520499 0.314623
45 1 9.09949 12.2988 1.99981 -0.49902 1.19681 -0.191038
46 1 8.39006 13.5275 2.00025 0.0426445 0.156247 0.253285
47 1 9.10055 14.7571 1.99923 1.05349 0.0107762 -0.765959
48 1 8.3893 15.9869 2.00035 -1.50292 -0.249238 0.347749
49 1 10.52 -0.00119742 2.00053 -0.207186 -0.750411 0.525245
50 1 11.2288 1.23012 2.00021 -1.82023 -0.226282 0.205785
51 1 10.5206 2.45956 2.00031 1.03031 0.0570384 0.312701
52 1 11.2298 3.68945 1.99986 -1.01089 0.171649 -0.139485
53 1 10.5201 4.91796 2.001 0.55833 -1.03935 0.998048
54 1 11.2288 6.15008 1.99886 -2.62275 2.34953 -1.13272
55 1 10.5206 7.3778 2.00025 1.58626 -1.67109 0.249157
56 1 11.2289 11.0679 2.00005 -1.6808 1.04115 0.0491268
57 1 10.5203 12.2963 1.99868 0.840343 -2.35633 -1.31688
58 1 11.2295 13.5272 2.00058 -1.30974 -0.136508 0.57611
59 1 10.5208 14.7576 1.9996 1.40314 1.60436 -0.400365
60 1 11.2299 15.9855 2.00045 -0.694395 -2.32896 0.453921
ITEM: TIMESTEP
3
ITEM: NUMBER OF ATOMS
60
ITEM: BOX BOUNDS mm mm mm
0.0000000000000000e+00 1.3230000000000000e+01
-1.7216585027234640e-03 1.7216585027234640e+01
0.0000000000000000e+00 4.0000000000000000e+00
ITEM: ATOMS id type x y z vx vy vz
1 1 1.99961 0.00232212 2.00025 0.598643 3.02254 0.168927
2 1 2.70883 1.22987 2.00009 -1.90171 0.0697275 0.0581214
3 1 2.00113 2.45784 1.99841 1.60236 -2.58423 -1.05836
4 1 2.70611 6.15057 1.99842 -4.10837 2.57035 -1.05274
5 1 2.00391 7.37737 1.99976 4.71878 -2.3717 -0.159837
6 1 2.70916 8.60792 2.0013 -1.15201 -0.219756 0.864743
7 1 2.00376 9.83964 2.00057 3.69621 1.02228 0.380799
8 1 2.70832 11.0691 2.00072 -1.68035 0.849873 0.481045
9 1 2.00262 12.2979 1.99994 2.93326 0.222032 -0.0374429
10 1 2.70904 13.5278 2.00023 -1.22939 0.308643 0.150887
11 1 2.00261 14.7576 2.00072 2.6967 1.23809 0.480252
12 1 2.71084 15.986 2.00026 0.891267 -1.19689 0.176161
13 1 4.8431 -0.000494641 1.99938 3.21378 0.138357 -0.416422
14 1 4.12869 1.23 1.99873 -1.60606 0.211067 -0.840642
15 1 4.83825 2.461 2.00007 -1.7182 1.92886 0.0476172
16 1 4.12911 3.6859 1.99967 0.247124 -3.69662 -0.220751
17 1 4.83896 7.38096 1.99985 -1.52879 3.07449 -0.0995903
18 1 4.13093 8.60681 1.99973 1.16401 -1.92601 -0.174561
19 1 4.84067 9.83801 2.00022 0.432848 -0.0392866 0.148836
20 1 4.13037 11.0677 2.00085 0.234013 -0.0398724 0.56259
21 1 4.83958 12.2989 1.99932 -0.255973 0.891698 -0.446631
22 1 4.13057 13.5277 2.00009 0.343057 0.253993 0.0599826
23 1 4.83922 14.7572 1.99993 0.257135 0.0243611 -0.0490635
24 1 4.12641 15.9869 1.99911 -3.54186 -0.414304 -0.589381
25 1 6.25843 -0.000488154 1.99863 -2.19332 0.130566 -0.909695
26 1 6.97286 1.22918 2.00069 2.59671 -0.30435 0.459043
27 1 6.25815 2.45886 2.00179 -1.18995 -0.424463 1.18686
28 1 6.96877 3.69064 2.00105 -1.34862 1.84332 0.698574
29 1 6.26269 4.91755 2.00072 2.62881 -2.44367 0.482196
30 1 6.97003 8.60988 1.99974 -0.829223 2.52605 -0.174661
31 1 6.26038 9.83562 1.9992 0.817831 -2.563 -0.53301
32 1 6.96941 11.0664 1.99972 -0.375082 -0.878891 -0.185317
33 1 6.26041 12.2986 2.00024 0.248183 0.665582 0.159995
34 1 6.96915 13.526 1.99989 -0.538305 -0.85097 -0.0719591
35 1 6.25894 14.7574 2.0004 -1.45833 0.139105 0.264005
36 1 6.97154 15.9874 1.99914 2.21021 -0.0771078 -0.574631
37 1 9.10097 0.00147223 1.99962 1.86839 1.39357 -0.251907
38 1 8.39006 1.2301 1.99872 -0.710304 0.318364 -0.847573
39 1 9.09982 2.46005 1.99921 -0.0985625 0.346388 -0.522213
40 1 8.39071 3.68899 2.00057 0.43834 -0.175811 0.379336
41 1 9.1002 4.91911 2.00103 -0.432759 1.022 0.686992
42 1 8.39073 6.14563 2.00083 1.33875 -3.56808 0.55717
43 1 9.09846 9.8407 2.00064 -1.86221 3.22552 0.425551
44 1 8.39193 11.0675 2.00047 1.79006 -1.14658 0.31333
45 1 9.09924 12.2994 1.99971 -0.476263 1.16254 -0.191287
46 1 8.39007 13.5275 2.00038 0.0259844 0.170527 0.251204
47 1 9.1012 14.7571 1.99885 1.5536 -0.031868 -0.763532
48 1 8.38835 15.9867 2.00052 -2.28169 -0.546597 0.346795
49 1 10.5199 -0.00146023 2.00079 -0.449503 -0.301075 0.524767
50 1 11.2278 1.22986 2.00031 -2.46237 -0.819036 0.206199
51 1 10.5212 2.45959 2.00047 1.42013 0.0663526 0.311531
52 1 11.2291 3.68953 1.99979 -1.80639 0.155348 -0.137947
53 1 10.5205 4.91745 2.0015 0.977708 -0.983349 0.994594
54 1 11.2271 6.15151 1.9983 -4.04856 3.35943 -1.12853
55 1 10.5216 7.37673 2.00037 2.59115 -2.57762 0.247
56 1 11.2279 11.0686 2.00007 -2.23978 2.00715 0.0460654
57 1 10.5208 12.2949 1.99802 1.39925 -3.43061 -1.31088
58 1 11.2286 13.5271 2.00087 -2.12346 -0.150514 0.57368
59 1 10.5217 14.7586 1.9994 1.96282 2.69337 -0.398597
60 1 11.2294 15.9841 2.00068 -1.24974 -3.28926 0.452302
ITEM: TIMESTEP
4
ITEM: NUMBER OF ATOMS
60
ITEM: BOX BOUNDS mm mm mm
0.0000000000000000e+00 1.3230000000000000e+01
-1.7216585027234640e-03 1.7216585027234640e+01
0.0000000000000000e+00 4.0000000000000000e+00
ITEM: ATOMS id type x y z vx vy vz
1 1 2.00005 0.00407589 2.00034 1.15578 3.98012 0.169646
2 1 2.70769 1.2299 2.00012 -2.61466 0.062839 0.0530198
3 1 2.00207 2.45631 1.99788 2.1531 -3.53679 -1.05608
4 1 2.70381 6.15208 1.99789 -5.08643 3.43584 -1.05145
5 1 2.00662 7.37592 1.99968 6.088 -3.38217 -0.160304
6 1 2.70849 8.60782 2.00173 -1.51499 -0.204045 0.861377
7 1 2.0058 9.84014 2.00076 4.46373 0.978066 0.382105
8 1 2.70739 11.0695 2.00096 -2.00428 0.839797 0.480787
9 1 2.00428 12.298 1.99992 3.69976 0.244094 -0.0369195
10 1 2.70833 13.5279 2.0003 -1.59101 0.306478 0.151019
11 1 2.00412 14.7584 2.00096 3.31053 1.79221 0.479854
12 1 2.71134 15.9853 2.00035 1.0829 -1.60223 0.175918
13 1 4.84489 -0.000343742 1.99917 3.90837 0.475183 -0.417447
14 1 4.12777 1.23011 1.99831 -2.07443 0.227211 -0.837029
15 1 4.8373 2.46211 2.00009 -2.06385 2.49989 0.0481564
16 1 4.12937 3.68381 1.99956 0.78761 -4.622 -0.220415
17 1 4.83806 7.38274 1.9998 -2.06569 4.00623 -0.100073
18 1 4.1316 8.60569 1.99965 1.49122 -2.49924 -0.17188
19 1 4.84089 9.83798 2.0003 0.417327 -0.0570743 0.147643
20 1 4.13048 11.0677 2.00113 0.214997 -0.0232491 0.559733
21 1 4.83946 12.2994 1.9991 -0.235226 0.855699 -0.442838
22 1 4.13073 13.5278 2.00012 0.302093 0.256172 0.0589733
23 1 4.83947 14.7572 1.9999 0.754623 0.0084743 -0.0489423
24 1 4.12446 15.9866 1.99882 -4.25395 -0.722283 -0.588473
25 1 6.25715 -0.000344144 1.99818 -2.89134 0.453172 -0.90815
26 1 6.97426 1.22904 2.00092 2.99808 -0.25558 0.456227
27 1 6.25756 2.45865 2.00238 -1.14389 -0.412975 1.1829
28 1 6.96802 3.69171 2.0014 -1.67036 2.41072 0.698856
29 1 6.26414 4.91609 2.00096 3.1635 -3.3773 0.482762
30 1 6.96948 8.61139 1.99965 -1.37794 3.46735 -0.175853
31 1 6.26088 9.83419 1.99893 1.17599 -3.14651 -0.529948
32 1 6.96922 11.066 1.99963 -0.349338 -0.853668 -0.184781
33 1 6.26053 12.299 2.00032 0.222297 0.59954 0.158116
34 1 6.96889 13.5255 1.99985 -0.509801 -0.785689 -0.0709047
35 1 6.25809 14.7575 2.00053 -1.93083 0.0925363 0.262763
36 1 6.97284 15.9873 1.99885 2.94501 -0.395149 -0.573775
37 1 9.1021 0.00223722 1.9995 2.6587 1.66688 -0.252409
38 1 8.38958 1.23027 1.9983 -1.17523 0.375137 -0.843577
39 1 9.09978 2.46022 1.99895 -0.0719382 0.330773 -0.520779
40 1 8.39092 3.68891 2.00076 0.396028 -0.160818 0.37931
41 1 9.09989 4.91978 2.00138 -0.786002 1.62528 0.686013
42 1 8.39154 6.14361 2.00111 1.88786 -4.51561 0.557836
43 1 9.0974 9.84255 2.00085 -2.39671 4.1615 0.425941
44 1 8.3929 11.0668 2.00063 2.08327 -1.73761 0.311511
45 1 9.09901 12.2999 1.99962 -0.439231 1.10827 -0.19166
46 1 8.39008 13.5276 2.00051 0.00837101 0.19143 0.248292
47 1 9.1021 14.7571 1.99847 2.04148 -0.0635585 -0.760126
48 1 8.38702 15.9863 2.0007 -3.01889 -0.853561 0.345482
49 1 10.5196 -0.0014985 2.00105 -0.682737 0.144885 0.524112
50 1 11.2264 1.2293 2.00041 -3.09031 -1.40868 0.206777
51 1 10.522 2.45963 2.00062 1.78789 0.0719578 0.30989
52 1 11.228 3.68961 1.99972 -2.58538 0.134152 -0.135828
53 1 10.5211 4.91697 2.00199 1.38232 -0.896701 0.989745
54 1 11.2248 6.15344 1.99774 -5.45272 4.31141 -1.12271
55 1 10.5232 7.37522 2.0005 3.57159 -3.44204 0.244058
56 1 11.2267 11.0699 2.0001 -2.77903 2.93925 0.0418391
57 1 10.5217 12.2929 1.99737 1.92719 -4.45016 -1.30249
58 1 11.2274 13.527 2.00115 -2.93593 -0.169218 0.570259
59 1 10.5228 14.7603 1.9992 2.4963 3.73514 -0.396154
60 1 11.2286 15.9822 2.00091 -1.78379 -4.21378 0.450072
ITEM: TIMESTEP
5
ITEM: NUMBER OF ATOMS
60
ITEM: BOX BOUNDS mm mm mm
0.0000000000000000e+00 1.3230000000000000e+01
-1.7216585027234640e-03 1.7216585027234640e+01
0.0000000000000000e+00 4.0000000000000000e+00
ITEM: ATOMS id type x y z vx vy vz
1 1 2.00077 0.00630223 2.00042 1.69629 4.90853 0.17058
2 1 2.70621 1.22993 2.00015 -3.28797 0.0529455 0.0465099
3 1 2.00328 2.4543 1.99735 2.6853 -4.45873 -1.0532
4 1 2.70102 6.15401 1.99737 -6.03014 4.24254 -1.04989
5 1 2.01 7.37399 1.9996 7.4163 -4.3311 -0.160811
6 1 2.70765 8.60772 2.00216 -1.84505 -0.197442 0.857027
7 1 2.00822 9.84062 2.00095 5.20631 0.920365 0.383764
8 1 2.70631 11.0699 2.0012 -2.28509 0.826213 0.480477
9 1 2.00632 12.2981 1.99991 4.44026 0.272499 -0.0362709
10 1 2.70745 13.5281 2.00038 -1.92403 0.313211 0.151192
11 1 2.00592 14.7594 2.0012 3.90122 2.32536 0.479362
12 1 2.71193 15.9844 2.00044 1.25071 -1.98671 0.175636
13 1 4.84701 -1.94581e-05 1.99896 4.53539 0.832845 -0.41873
14 1 4.12662 1.23023 1.9979 -2.52324 0.233444 -0.832367
15 1 4.83618 2.4635 2.00012 -2.38566 3.01428 0.0488545
16 1 4.12989 3.68128 1.99945 1.30445 -5.50358 -0.22
17 1 4.8369 7.38497 1.99975 -2.57908 4.89574 -0.100688
18 1 4.13242 8.60431 1.99956 1.78178 -3.01854 -0.168402
19 1 4.84109 9.83795 2.00037 0.399919 -0.0851701 0.146101
20 1 4.13059 11.0677 2.00141 0.18697 -0.00347909 0.556068
21 1 4.83935 12.2998 1.99888 -0.210525 0.810053 -0.437976
22 1 4.13087 13.528 2.00015 0.247982 0.261481 0.0576874
23 1 4.83997 14.7572 1.99988 1.22238 0.00831777 -0.0488113
24 1 4.12216 15.9862 1.99853 -4.91309 -1.04089 -0.58734
25 1 6.25554 -3.49814e-05 1.99773 -3.52344 0.792064 -0.906166
26 1 6.97586 1.22892 2.00115 3.34381 -0.212841 0.452623
27 1 6.257 2.45845 2.00297 -1.08743 -0.394979 1.17781
28 1 6.9671 3.69305 2.00175 -1.95911 2.92359 0.699225
29 1 6.26585 4.91417 2.00121 3.67295 -4.26952 0.483475
30 1 6.96865 8.61335 1.99956 -1.90528 4.36935 -0.177363
31 1 6.26156 9.83247 1.99867 1.51054 -3.67924 -0.526024
32 1 6.96906 11.0656 1.99954 -0.313851 -0.82773 -0.184091
33 1 6.26063 12.2992 2.0004 0.190699 0.515439 0.155707
34 1 6.96864 13.5252 1.99982 -0.475769 -0.701249 -0.0695539
35 1 6.25701 14.7575 2.00066 -2.36833 0.0545115 0.261146
36 1 6.97449 15.987 1.99856 3.62404 -0.728884 -0.572716
37 1 9.10363 0.00313911 1.99937 3.41732 1.94231 -0.253091
38 1 8.38888 1.23047 1.99788 -1.6016 0.426068 -0.838481
39 1 9.09975 2.46038 1.99869 -0.03623 0.310341 -0.518934
40 1 8.39111 3.68883 2.00095 0.34123 -0.136244 0.379296
41 1 9.09941 4.92074 2.00172 -1.10945 2.1825 0.684778
42 1 8.39262 6.14112 2.00139 2.41693 -5.42555 0.558684
43 1 9.09607 9.84486 2.00106 -2.90619 5.05681 0.426452
44 1 8.39401 11.0658 2.00078 2.33575 -2.28018 0.309162
45 1 9.09881 12.3005 1.99952 -0.386051 1.03007 -0.192182
46 1 8.39008 13.5277 2.00063 -0.00726198 0.218769 0.244551
47 1 9.10324 14.7571 1.99809 2.51298 -0.080986 -0.755733
48 1 8.38533 15.9858 2.00087 -3.70053 -1.17245 0.343833
49 1 10.5192 -0.00131535 2.00131 -0.903741 0.581629 0.523301
50 1 11.2247 1.22845 2.00052 -3.69934 -1.98721 0.207512
51 1 10.523 2.45966 2.00078 2.12852 0.0696946 0.30778
52 1 11.2265 3.68967 1.99965 -3.34273 0.109023 -0.133159
53 1 10.5219 4.91655 2.00249 1.76394 -0.775079 0.983493
54 1 11.2217 6.15582 1.99718 -6.82456 5.18774 -1.11532
55 1 10.5252 7.37329 2.00062 4.51846 -4.24794 0.240412
56 1 11.2251 11.0716 2.00012 -3.29083 3.82417 0.0365108
57 1 10.5228 12.2904 1.99672 2.41275 -5.39557 -1.29175
58 1 11.2257 13.5269 2.00144 -3.74571 -0.192198 0.565827
59 1 10.5242 14.7624 1.999 2.99465 4.71069 -0.393066
60 1 11.2276 15.9799 2.00113 -2.28854 -5.08912 0.447272
ITEM: TIMESTEP
6
ITEM: NUMBER OF ATOMS
60
ITEM: BOX BOUNDS mm mm mm
0.0000000000000000e+00 1.3230000000000000e+01
-1.7216585027234640e-03 1.7216585027234640e+01
0.0000000000000000e+00 4.0000000000000000e+00
ITEM: ATOMS id type x y z vx vy vz
1 1 2.00175 0.00898442 2.00051 2.21491 5.79902 0.171736
2 1 2.70441 1.22995 2.00017 -3.90951 0.0399018 0.0386288
3 1 2.00475 2.45185 1.99683 3.19372 -5.34131 -1.04977
4 1 2.69778 6.15632 1.99684 -6.92965 4.97205 -1.04813
5 1 2.01403 7.37159 1.99952 8.69286 -5.19767 -0.161274
6 1 2.70665 8.60762 2.00259 -2.13544 -0.206426 0.851673
7 1 2.01101 9.84106 2.00114 5.91897 0.849339 0.385764
8 1 2.7051 11.0703 2.00144 -2.51675 0.80887 0.480125
9 1 2.00872 12.2983 1.99989 5.14952 0.306982 -0.0355131
10 1 2.70641 13.5283 2.00045 -2.2238 0.33281 0.151406
11 1 2.00802 14.7607 2.00144 4.4638 2.82959 0.478788
12 1 2.71259 15.9833 2.00053 1.39201 -2.34439 0.175337
13 1 4.84943 0.000489103 1.99875 5.08169 1.21292 -0.420242
14 1 4.12525 1.23035 1.99748 -2.94997 0.230712 -0.826643
15 1 4.83491 2.46513 2.00014 -2.67672 3.45795 0.0497186
16 1 4.13067 3.67831 1.99934 1.79117 -6.33006 -0.219521
17 1 4.83548 7.38763 1.9997 -3.06275 5.73196 -0.101431
18 1 4.13338 8.60268 1.99948 2.02663 -3.46978 -0.164106
19 1 4.84129 9.8379 2.00045 0.382132 -0.125434 0.144204
20 1 4.13067 11.0677 2.00168 0.149242 0.018774 0.551601
21 1 4.83925 12.3002 1.99866 -0.182677 0.755273 -0.432055
22 1 4.13098 13.5281 2.00018 0.181305 0.270479 0.056132
23 1 4.8407 14.7572 1.99985 1.65016 0.0248642 -0.048688
24 1 4.11955 15.9856 1.99823 -5.50967 -1.37111 -0.586005
25 1 6.25363 0.00044792 1.99727 -4.07635 1.14866 -0.903746
26 1 6.97761 1.22883 2.00137 3.62481 -0.177353 0.448246
27 1 6.25648 2.45826 2.00356 -1.02192 -0.368754 1.17158
28 1 6.96606 3.69463 2.0021 -2.20745 3.36889 0.699686
29 1 6.26781 4.91182 2.00145 4.15086 -5.10934 0.484325
30 1 6.96757 8.61576 1.99947 -2.40481 5.22106 -0.179172
31 1 6.26239 9.83051 1.9984 1.81329 -4.14737 -0.521248
32 1 6.96891 11.0652 1.99944 -0.268004 -0.803922 -0.183248
33 1 6.26072 12.2995 2.00048 0.154411 0.414389 0.152773
34 1 6.96841 13.5248 1.99979 -0.437918 -0.598602 -0.0679094
35 1 6.25572 14.7575 2.00079 -2.76129 0.0270062 0.259142
36 1 6.97646 15.9865 1.99828 4.23364 -1.08033 -0.571488
37 1 9.10552 0.00417953 1.99924 4.13381 2.22186 -0.253986
38 1 8.38798 1.2307 1.99746 -1.97951 0.468727 -0.832314
39 1 9.09974 2.46053 1.99844 0.00834069 0.285496 -0.516675
40 1 8.39127 3.68877 2.00114 0.274026 -0.100045 0.379303
41 1 9.09878 4.92196 2.00206 -1.39361 2.67914 0.683307
42 1 8.39396 6.13818 2.00167 2.91968 -6.28685 0.559708
43 1 9.09449 9.8476 2.00128 -3.38441 5.9004 0.427089
44 1 8.39524 11.0645 2.00094 2.54003 -2.76064 0.306274
45 1 9.09863 12.301 1.99943 -0.315274 0.924062 -0.192883
46 1 8.39007 13.5279 2.00075 -0.0178077 0.252078 0.239981
47 1 9.10461 14.757 1.99771 2.96392 -0.0809689 -0.750346
48 1 8.38332 15.9852 2.00104 -4.31284 -1.50506 0.34188
49 1 10.5187 -0.000916866 2.00157 -1.10941 1.00317 0.52236
50 1 11.2227 1.22731 2.00062 -4.28467 -2.54648 0.2084
51 1 10.5242 2.4597 2.00093 2.43729 0.0554564 0.3052
52 1 11.2246 3.68971 1.99959 -4.07355 0.0810613 -0.129978
53 1 10.5229 4.9162 2.00298 2.11461 -0.614495 0.975826
54 1 11.2179 6.15863 1.99662 -8.1523 5.96953 -1.10644
55 1 10.5277 7.37097 2.00074 5.42194 -4.97738 0.236176
56 1 11.2234 11.0737 2.00013 -3.76707 4.64794 0.030164
57 1 10.5241 12.2875 1.99608 2.84422 -6.24675 -1.27867
58 1 11.2236 13.5268 2.00172 -4.55056 -0.218929 0.56036
59 1 10.5258 14.765 1.99881 3.44826 5.60022 -0.389375
60 1 11.2263 15.9771 2.00135 -2.75554 -5.90117 0.443955
ITEM: TIMESTEP
7
ITEM: NUMBER OF ATOMS
60
ITEM: BOX BOUNDS mm mm mm
0.0000000000000000e+00 1.3230000000000000e+01
-1.7216585027234640e-03 1.7216585027234640e+01
0.0000000000000000e+00 4.0000000000000000e+00
ITEM: ATOMS id type x y z vx vy vz
1 1 2.00298 0.0121013 2.00059 2.70626 6.64251 0.173127
2 1 2.7023 1.22997 2.00019 -4.46708 0.023667 0.0294219
3 1 2.00647 2.44896 1.9963 3.67297 -6.17549 -1.04585
4 1 2.69409 6.15898 1.99632 -7.77438 5.60402 -1.04627
5 1 2.01869 7.36879 1.99944 9.90575 -5.95936 -0.16158
6 1 2.70551 8.60751 2.00301 -2.37998 -0.237459 0.845285
7 1 2.01414 9.84147 2.00134 6.59695 0.765307 0.388088
8 1 2.70379 11.0707 2.00168 -2.6939 0.787518 0.479746
9 1 2.01147 12.2984 1.99987 5.82247 0.347178 -0.0346643
10 1 2.70522 13.5284 2.00053 -2.48608 0.369058 0.151666
11 1 2.01039 14.7623 2.00168 4.99323 3.29685 0.478148
12 1 2.71332 15.982 2.00062 1.50439 -2.66923 0.175042
13 1 4.85209 0.00119346 1.99854 5.53476 1.61629 -0.421952
14 1 4.12367 1.23046 1.99707 -3.35231 0.220147 -0.819845
15 1 4.83351 2.46696 2.00017 -2.92998 3.8169 0.0507593
16 1 4.13168 3.67495 1.99923 2.24107 -7.0898 -0.218995
17 1 4.83384 7.3907 1.99965 -3.51023 6.50351 -0.102297
18 1 4.13445 8.60084 1.9994 2.21707 -3.83851 -0.158963
19 1 4.84147 9.83782 2.00052 0.365414 -0.179407 0.141942
20 1 4.13073 11.0677 2.00196 0.101572 0.0427666 0.546342
21 1 4.83917 12.3006 1.99845 -0.152595 0.692032 -0.42509
22 1 4.13105 13.5282 2.00021 0.103163 0.283549 0.0543153
23 1 4.84162 14.7572 1.99983 2.02826 0.0584948 -0.0485922
24 1 4.11665 15.9848 1.99794 -6.0346 -1.71331 -0.584497
25 1 6.25146 0.00111367 1.99682 -4.53751 1.52363 -0.900904
26 1 6.97948 1.22875 2.0016 3.83299 -0.149815 0.443114
27 1 6.25598 2.45808 2.00414 -0.948849 -0.332673 1.16422
28 1 6.9649 3.69642 2.00245 -2.40792 3.73347 0.700245
29 1 6.27 4.90906 2.00169 4.59073 -5.88544 0.485298
30 1 6.96625 8.61857 1.99938 -2.86986 6.01111 -0.181259
31 1 6.26337 9.82833 1.99815 2.07589 -4.53693 -0.515632
32 1 6.96879 11.0648 1.99935 -0.211391 -0.784949 -0.182256
33 1 6.26079 12.2997 2.00055 0.114613 0.297855 0.149323
34 1 6.9682 13.5246 1.99975 -0.398125 -0.479197 -0.0659743
35 1 6.25425 14.7575 2.00092 -3.10085 0.011516 0.256737
36 1 6.97872 15.9859 1.99799 4.76061 -1.45078 -0.570134
37 1 9.10776 0.00536098 1.99912 4.79791 2.50706 -0.255132
38 1 8.3869 1.23094 1.99705 -2.29973 0.501052 -0.825108
39 1 9.09976 2.46067 1.99818 0.0611088 0.256909 -0.513999
40 1 8.39138 3.68873 2.00133 0.194834 -0.0505181 0.379342
41 1 9.09802 4.92342 2.0024 -1.62927 3.10028 0.681625
42 1 8.39554 6.13483 2.00195 3.38957 -7.08808 0.5609
43 1 9.09268 9.85076 2.00149 -3.82497 6.68085 0.427863
44 1 8.39655 11.063 2.00109 2.6887 -3.16527 0.302838
45 1 9.09849 12.3014 1.99933 -0.225998 0.786627 -0.193803
46 1 8.39006 13.528 2.00087 -0.0200365 0.290592 0.23458
47 1 9.1062 14.757 1.99734 3.39001 -0.0605524 -0.743956
48 1 8.38102 15.9843 2.00121 -4.84245 -1.85256 0.339664
49 1 10.5181 -0.000312177 2.00183 -1.29674 1.40337 0.521325
50 1 11.2204 1.2259 2.00072 -4.84147 -3.07822 0.209433
51 1 10.5255 2.45972 2.00108 2.70982 0.0252892 0.302152
52 1 11.2224 3.68975 1.99952 -4.77327 0.0515056 -0.126328
53 1 10.524 4.91593 2.00346 2.42677 -0.411523 0.966733
54 1 11.2135 6.16179 1.99607 -9.42302 6.63661 -1.09619
55 1 10.5306 7.36831 2.00085 6.27154 -5.61061 0.231495
56 1 11.2214 11.0762 2.00015 -4.1992 5.39594 0.022905
57 1 10.5256 12.2842 1.99544 3.20974 -6.98316 -1.26329
58 1 11.2212 13.5267 2.002 -5.34742 -0.248782 0.553828
59 1 10.5276 14.768 1.99861 3.84688 6.38317 -0.385133
60 1 11.2248 15.974 2.00158 -3.17585 -6.63498 0.440191
ITEM: TIMESTEP
8
ITEM: NUMBER OF ATOMS
60
ITEM: BOX BOUNDS mm mm mm
0.0000000000000000e+00 1.3230000000000000e+01
-1.7216585027234640e-03 1.7216585027234640e+01
0.0000000000000000e+00 4.0000000000000000e+00
ITEM: ATOMS id type x y z vx vy vz
1 1 2.00446 0.0156269 2.00068 3.16476 7.4295 0.174766
2 1 2.69994 1.22998 2.0002 -4.9485 0.00432501 0.0189437
3 1 2.00843 2.44567 1.99578 4.11754 -6.9519 -1.0415
4 1 2.69 6.16193 1.9958 -8.55303 6.11602 -1.04444
5 1 2.02394 7.36563 1.99936 11.042 -6.59199 -0.161586
6 1 2.70427 8.60738 2.00344 -2.57308 -0.296629 0.837829
7 1 2.01761 9.84183 2.00153 7.23577 0.668716 0.390719
8 1 2.70241 11.0711 2.00192 -2.81192 0.761921 0.479353
9 1 2.01454 12.2986 1.99985 6.45426 0.392633 -0.033745
10 1 2.70392 13.5286 2.0006 -2.70702 0.42544 0.151976
11 1 2.01301 14.764 2.00192 5.48433 3.71918 0.477461
12 1 2.71409 15.9806 2.0007 1.58579 -2.95509 0.174776
13 1 4.85496 0.0021054 1.99833 5.88305 2.04317 -0.423823
14 1 4.1219 1.23057 1.99666 -3.72818 0.203025 -0.811956
15 1 4.83198 2.46895 2.00019 -3.13831 4.07739 0.0519913
16 1 4.13291 3.67122 1.99912 2.64724 -7.77086 -0.218444
17 1 4.83197 7.39414 1.9996 -3.91494 7.19877 -0.103282
18 1 4.1356 8.59884 1.99932 2.34489 -4.11029 -0.15294
19 1 4.84165 9.83772 2.00059 0.351056 -0.248175 0.139306
20 1 4.13077 11.0677 2.00223 0.044191 0.0676738 0.540301
21 1 4.8391 12.3009 1.99824 -0.121284 0.621149 -0.417098
22 1 4.13108 13.5284 2.00023 0.0151757 0.300878 0.0522464
23 1 4.84272 14.7573 1.9998 2.34767 0.108985 -0.0485458
24 1 4.11351 15.9838 1.99765 -6.47935 -2.06716 -0.58285
25 1 6.24909 0.00197155 1.99637 -4.89545 1.91692 -0.897654
26 1 6.98144 1.22868 2.00182 3.96164 -0.130357 0.437248