ITEM: TIMESTEP
0
ITEM: NUMBER OF ATOMS
512
ITEM: BOX BOUNDS mm mm mm
0.0000000000000000e+00 4.0122438274590991e+01
-3.4080000000000000e-03 3.4079999999999998e+01
0.0000000000000000e+00 2.0000000000000000e+00
ITEM: ATOMS id type x y z vx vy vz
1 1 1 0 1 -1.18373 0.0643616 0.0766453
2 1 2.22976 0.71 1 0.372714 0.0823446 -0.0321855
3 1 2.22976 2.13 1 -0.117589 0.397173 -1.21878
4 1 1 2.84 1 -1.11579 -0.225974 -1.21155
5 1 1 4.26 1 0.484493 0.890707 -0.268104
6 1 2.22976 4.97 1 0.0637251 -0.27162 0.815368
7 1 2.22976 6.39 1 1.36439 1.13615 0.299082
8 1 1 7.1 1 -0.547511 0.910728 0.406879
9 1 1 8.52 1 0.559596 0.208776 -0.140589
10 1 2.22976 9.23 1 -0.027092 0.349047 0.0584211
11 1 2.22976 10.65 1 0.804228 -0.494362 0.406227
33 1 3.45951 0 1 0.298031 0.793743 0.0707503
34 1 4.68927 0.71 1 -0.609217 -0.976396 -0.177656
35 1 4.68927 2.13 1 0.0698197 0.32467 0.179459
36 1 3.45951 2.84 1 -0.199271 0.858014 -0.707111
37 1 3.45951 4.26 1 -0.619244 0.595272 -0.365195
38 1 4.68927 4.97 1 0.852518 0.151586 -0.998984
39 1 4.68927 6.39 1 -0.135615 0.386718 -0.652615
40 1 3.45951 7.1 1 0.519081 -0.193544 0.299386
41 1 3.45951 8.52 1 0.746119 -0.972578 0.624865
42 1 4.68927 9.23 1 -0.390333 -0.634908 0.485809
43 1 4.68927 10.65 1 -0.178656 0.297286 0.347508
65 1 5.91902 0 1 0.629973 -0.345507 -0.492664
66 1 7.14878 0.71 1 -0.0171535 -0.455607 0.00100773
67 1 7.14878 2.13 1 0.299165 0.0149497 0.172098
68 1 5.91902 2.84 1 -0.896844 0.0584986 -0.150847
69 1 5.91902 4.26 1 0.386487 -0.585621 -0.663077
70 1 7.14878 4.97 1 -0.244469 -0.255301 -0.0661835
71 1 7.14878 6.39 1 0.261962 0.130574 0.689305
72 1 5.91902 7.1 1 0.0151843 -0.918173 -0.0710787
73 1 5.91902 8.52 1 -0.0589933 -0.225591 0.145769
74 1 7.14878 9.23 1 0.0869576 0.692016 1.00076
75 1 7.14878 10.65 1 0.397321 0.132766 0.265778
97 1 8.37854 0 1 -0.0883667 -0.0539403 1.07835
98 1 9.60829 0.71 1 -0.432215 0.092513 -0.0940381
99 1 9.60829 2.13 1 0.520225 -0.0646716 0.387956
100 1 8.37854 2.84 1 0.878242 0.457737 -0.786639
101 1 8.37854 4.26 1 0.115628 -0.31859 0.120137
102 1 9.60829 4.97 1 0.120558 -0.370225 0.599344
103 1 9.60829 6.39 1 0.828901 0.771763 -0.0587148
104 1 8.37854 7.1 1 -0.358998 -0.365099 -0.294969
105 1 8.37854 8.52 1 -0.205135 0.388024 0.86551
106 1 9.60829 9.23 1 -0.323483 0.823237 -0.138679
107 1 9.60829 10.65 1 0.258653 -0.0407328 0.215288
129 1 10.838 0 1 -1.50838 -0.693557 -0.275233
130 1 12.0678 0.71 1 0.421412 0.504753 -0.419132
131 1 12.0678 2.13 1 -0.00869758 0.576301 1.67442
132 1 10.838 2.84 1 -0.587693 0.276127 -0.524168
133 1 10.838 4.26 1 0.020753 0.685437 -0.0790944
134 1 12.0678 4.97 1 0.375795 -1.01052 0.314082
135 1 12.0678 6.39 1 -0.364947 0.90078 0.771605
136 1 10.838 7.1 1 0.721888 0.833838 -0.683852
137 1 10.838 8.52 1 0.123589 0.571105 -0.761092
138 1 12.0678 9.23 1 0.728883 0.0947882 -0.0200956
139 1 12.0678 10.65 1 0.225021 0.0147788 0.0177798
161 1 13.2976 0 1 0.898739 -0.403163 -0.670318
164 1 13.2976 2.84 1 -0.733682 -0.189555 -0.363802
165 1 13.2976 4.26 1 -0.64638 -0.16571 0.588618
168 1 13.2976 7.1 1 -0.0175237 -0.489954 -0.12568
169 1 13.2976 8.52 1 -0.168762 -0.425333 1.06095
162 1 14.5273 0.71 1 0.588015 -0.28826 0.417525
163 1 14.5273 2.13 1 0.217455 0.205622 0.373108
166 1 14.5273 4.97 1 1.25584 -1.10797 0.357416
167 1 14.5273 6.39 1 -0.0876974 0.218392 0.403885
170 1 14.5273 9.23 1 -0.154105 0.174424 0.308654
171 1 14.5273 10.65 1 0.00564416 -0.158684 0.437135
193 1 15.7571 0 1 1.1841 0.292462 -0.102969
194 1 16.9868 0.71 1 -0.875373 -1.19266 0.318796
195 1 16.9868 2.13 1 0.812078 1.23282 -0.33081
196 1 15.7571 2.84 1 0.522899 -0.015159 -0.477921
197 1 15.7571 4.26 1 0.0500428 -0.280465 0.0164562
198 1 16.9868 4.97 1 -0.0452031 0.511936 -0.133006
199 1 16.9868 6.39 1 0.994535 -0.333403 0.0213753
200 1 15.7571 7.1 1 -1.1058 -0.546452 -0.449104
201 1 15.7571 8.52 1 -0.205309 0.596364 0.224219
202 1 16.9868 9.23 1 0.375279 -0.295563 0.159359
203 1 16.9868 10.65 1 0.101097 0.371788 -0.0943967
225 1 18.2166 0 1 1.34721 -0.473733 -0.371132
226 1 19.4463 0.71 1 0.607862 0.615909 0.320757
227 1 19.4463 2.13 1 0.84656 -0.982238 -0.248185
228 1 18.2166 2.84 1 1.09435 0.179021 -0.164155
229 1 18.2166 4.26 1 0.266427 -0.298778 1.60013
230 1 19.4463 4.97 1 -0.544891 0.13583 -0.270164
231 1 19.4463 6.39 1 0.228614 0.04969 0.407044
232 1 18.2166 7.1 1 -0.484254 0.0888781 0.0123739
233 1 18.2166 8.52 1 -0.483484 -0.462645 -0.709959
234 1 19.4463 9.23 1 -0.473113 -0.601269 0.290365
235 1 19.4463 10.65 1 -0.00460414 -0.536942 -0.307155
257 1 20.6761 0 1 0.65081 0.0566727 -0.431341
258 1 21.9059 0.71 1 0.125735 0.379207 0.408024
259 1 21.9059 2.13 1 -0.330013 0.407922 0.571064
260 1 20.6761 2.84 1 -0.0239143 0.607082 -0.151986
261 1 20.6761 4.26 1 -0.751935 -0.365584 0.262384
262 1 21.9059 4.97 1 -0.428143 0.779354 -0.994372
263 1 21.9059 6.39 1 0.15719 -0.16231 -1.61834
264 1 20.6761 7.1 1 0.519612 0.0525947 -0.114196
265 1 20.6761 8.52 1 -0.369144 0.57657 0.454495
266 1 21.9059 9.23 1 -0.988088 -0.212836 0.637486
267 1 21.9059 10.65 1 0.221237 0.832827 0.260061
289 1 23.1356 0 1 0.355121 -0.75462 0.340853
290 1 24.3654 0.71 1 -0.119234 0.101896 1.23489
291 1 24.3654 2.13 1 -0.00774358 0.52765 0.337076
292 1 23.1356 2.84 1 0.709396 0.0290884 -0.238421
293 1 23.1356 4.26 1 0.187038 0.696232 0.819613
294 1 24.3654 4.97 1 -0.3994 0.383061 -0.0995613
295 1 24.3654 6.39 1 0.713451 -0.671488 0.373069
296 1 23.1356 7.1 1 -0.320733 0.081239 0.12643
297 1 23.1356 8.52 1 0.054945 -0.279328 -0.366835
298 1 24.3654 9.23 1 0.191623 -0.697364 -0.414372
299 1 24.3654 10.65 1 -0.136407 -0.321367 -0.519014
321 1 25.5951 0 1 0.448549 -0.18591 -0.33157
324 1 25.5951 2.84 1 -0.31186 0.69737 0.073953
325 1 25.5951 4.26 1 -1.0236 -0.83569 0.704424
328 1 25.5951 7.1 1 0.0279293 -0.362044 0.527707
329 1 25.5951 8.52 1 1.84229 0.133288 0.316867
322 1 26.8249 0.71 1 0.384678 -0.145536 -0.622594
323 1 26.8249 2.13 1 1.05865 -1.33395 1.07534
326 1 26.8249 4.97 1 -0.116619 -0.337735 -0.00470376
327 1 26.8249 6.39 1 0.372258 0.187092 -0.501062
330 1 26.8249 9.23 1 0.245951 0.173507 0.0725743
331 1 26.8249 10.65 1 1.36939 -0.189004 0.912917
353 1 28.0546 0 1 0.173428 0.660431 -0.293137
354 1 29.2844 0.71 1 -0.258013 0.997072 0.788704
355 1 29.2844 2.13 1 -0.168799 -0.215388 1.18719
356 1 28.0546 2.84 1 -0.423568 -0.555746 0.327531
357 1 28.0546 4.26 1 0.289241 0.42729 0.389059
358 1 29.2844 4.97 1 -0.466247 -0.567406 -0.518198
359 1 29.2844 6.39 1 -0.971235 -0.601417 0.547421
360 1 28.0546 7.1 1 1.11198 0.157107 0.60724
361 1 28.0546 8.52 1 -0.276041 -0.0993882 0.674904
362 1 29.2844 9.23 1 -0.145988 0.74536 -0.317481
363 1 29.2844 10.65 1 -0.595379 -0.804362 0.0974508
385 1 30.5141 0 1 -0.507213 0.747571 0.264364
386 1 31.7439 0.71 1 -0.314266 0.203331 -0.555136
387 1 31.7439 2.13 1 0.80552 0.342417 -0.543611
388 1 30.5141 2.84 1 0.0645251 0.247987 -0.896493
389 1 30.5141 4.26 1 0.597482 -0.566844 -0.237775
390 1 31.7439 4.97 1 0.202245 0.596294 0.654631
391 1 31.7439 6.39 1 0.456835 0.0807964 1.06402
392 1 30.5141 7.1 1 -0.0791841 0.313252 -0.250358
393 1 30.5141 8.52 1 -0.776294 -0.0449321 0.102063
394 1 31.7439 9.23 1 -0.43455 -0.141784 -0.323256
395 1 31.7439 10.65 1 -0.333162 -0.0863293 -0.97635
417 1 32.9737 0 1 -1.06518 -0.972918 -0.198719
418 1 34.2034 0.71 1 0.223444 0.3132 0.191934
419 1 34.2034 2.13 1 -1.29036 -0.889244 -0.066876
420 1 32.9737 2.84 1 -1.6312 0.467514 0.333921
421 1 32.9737 4.26 1 0.409901 0.321481 -0.25179
422 1 34.2034 4.97 1 -0.953957 -0.168175 -0.0436038
423 1 34.2034 6.39 1 -0.694137 0.334496 -0.155468
424 1 32.9737 7.1 1 -0.398295 -0.344652 -0.675005
425 1 32.9737 8.52 1 -0.57328 -0.301872 -0.107137
426 1 34.2034 9.23 1 -0.224336 0.605869 -0.635333
427 1 34.2034 10.65 1 0.0424615 0.617789 0.309916
449 1 35.4332 0 1 -0.603873 -0.842357 -0.718961
450 1 36.6629 0.71 1 0.433584 0.165375 0.656474
451 1 36.6629 2.13 1 0.453287 -0.301736 -0.255992
452 1 35.4332 2.84 1 0.448374 0.262009 -0.535203
453 1 35.4332 4.26 1 0.852419 -0.449767 -0.0112174
454 1 36.6629 4.97 1 0.0491501 0.142894 -0.343471
455 1 36.6629 6.39 1 -0.980219 0.507799 0.348914
456 1 35.4332 7.1 1 0.0477011 0.74863 1.09026
457 1 35.4332 8.52 1 -0.501869 0.350633 0.0411005
458 1 36.6629 9.23 1 -0.481269 -1.64646 -0.298248
459 1 36.6629 10.65 1 0.402028 0.472028 0.371315
481 1 37.8927 0 1 -0.511677 -0.328422 0.411316
482 1 39.1224 0.71 1 -0.786572 -0.132834 -0.377863
483 1 39.1224 2.13 1 0.00929608 0.231926 -0.184759
484 1 37.8927 2.84 1 -0.983958 0.00102735 0.0518424
485 1 37.8927 4.26 1 0.620816 0.829581 1.10059
486 1 39.1224 4.97 1 -0.212986 -0.317096 -0.919618
487 1 39.1224 6.39 1 0.312612 -0.208676 -0.515047
488 1 37.8927 7.1 1 0.0824628 -0.553037 -0.501059
489 1 37.8927 8.52 1 -0.147058 0.0101328 -0.634035
490 1 39.1224 9.23 1 0.496153 -1.35979 -0.917235
491 1 39.1224 10.65 1 -0.2027 0.481979 0.303576
12 1 1 11.36 1 0.212691 0.0945615 0.0856041
13 1 1 12.78 1 0.908022 -0.809902 -0.53777
14 1 2.22976 13.49 1 -0.120594 0.105811 -0.991094
15 1 2.22976 14.91 1 -0.637885 0.0197453 -0.0509489
16 1 1 15.62 1 -1.53424 -0.803303 -0.333483
17 1 1 17.04 1 0.170776 0.14222 -0.204677
18 1 2.22976 17.75 1 0.0575509 -0.0156641 -0.287938
19 1 2.22976 19.17 1 0.476689 -0.0246123 0.0580505
20 1 1 19.88 1 0.261757 -0.065566 0.496307
21 1 1 21.3 1 -0.305073 0.992882 -0.576181
22 1 2.22976 22.01 1 0.408289 0.275855 -0.0358066
44 1 3.45951 11.36 1 0.778825 0.830019 0.232225
45 1 3.45951 12.78 1 -0.539461 1.28916 -0.301502
46 1 4.68927 13.49 1 0.0643983 0.158296 0.168258
47 1 4.68927 14.91 1 0.0332282 0.124811 -0.909562
48 1 3.45951 15.62 1 0.128139 0.348774 0.266857
49 1 3.45951 17.04 1 0.306374 -1.72123 0.453486
50 1 4.68927 17.75 1 -0.54119 0.991233 0.1161
51 1 4.68927 19.17 1 0.215975 0.0492555 0.230097
52 1 3.45951 19.88 1 0.639674 0.199605 -0.248691
53 1 3.45951 21.3 1 -0.308735 -1.13235 0.954195
54 1 4.68927 22.01 1 0.26793 0.238358 -1.29753
76 1 5.91902 11.36 1 0.799079 -0.226678 -0.0789976
77 1 5.91902 12.78 1 0.649766 -0.102524 -0.224409
78 1 7.14878 13.49 1 -0.0752734 -0.656002 0.289626
79 1 7.14878 14.91 1 0.0808668 0.63396 0.283518
80 1 5.91902 15.62 1 0.197066 -0.964976 0.728504
81 1 5.91902 17.04 1 -0.526327 0.417973 0.563043
82 1 7.14878 17.75 1 0.18423 0.357515 0.589323
83 1 7.14878 19.17 1 0.673165 -0.27045 0.624818
84 1 5.91902 19.88 1 0.764386 0.393255 -0.515059
85 1 5.91902 21.3 1 -0.0899762 -0.390216 -0.953487
86 1 7.14878 22.01 1 -1.14422 0.243663 -0.140534
108 1 8.37854 11.36 1 -0.832767 -1.10571 -0.601115
109 1 8.37854 12.78 1 0.614825 0.0242683 -0.304413
110 1 9.60829 13.49 1 -0.418089 -0.122693 0.3875
111 1 9.60829 14.91 1 -0.101669 0.271929 -0.626594
112 1 8.37854 15.62 1 0.730573 0.273999 0.486148
113 1 8.37854 17.04 1 0.629728 -0.121636 0.011742
114 1 9.60829 17.75 1 -0.557798 0.131609 0.361535
115 1 9.60829 19.17 1 0.39895 0.0979311 0.889416
116 1 8.37854 19.88 1 0.613973 -1.14607 -1.1154
117 1 8.37854 21.3 1 -0.470645 0.193835 -0.141067
118 1 9.60829 22.01 1 0.460619 0.52632 -0.0542056
140 1 10.838 11.36 1 -0.273837 1.12965 0.643157
141 1 10.838 12.78 1 -0.412884 -0.879463 -0.367215
142 1 12.0678 13.49 1 1.87163 -0.900276 -0.778397
143 1 12.0678 14.91 1 -0.263814 1.50963 0.384761
144 1 10.838 15.62 1 -0.123444 0.0867334 -0.230342
145 1 10.838 17.04 1 -1.50408 -0.853443 -0.614173
146 1 12.0678 17.75 1 0.602696 -0.21995 -0.1488
147 1 12.0678 19.17 1 0.0628667 0.0573647 0.618139
148 1 10.838 19.88 1 -0.243639 -1.15263 -0.0785436
149 1 10.838 21.3 1 -0.499136 -0.491329 -0.0673912
150 1 12.0678 22.01 1 0.220659 0.0910485 0.0456808
172 1 13.2976 11.36 1 0.679362 0.254699 -0.1777
173 1 13.2976 12.78 1 0.62276 -0.247593 -0.310996
176 1 13.2976 15.62 1 0.16992 0.305671 -0.580458
177 1 13.2976 17.04 1 -0.220024 -0.150386 -0.271817
180 1 13.2976 19.88 1 0.134006 -0.821501 0.88197
181 1 13.2976 21.3 1 -0.985223 -0.360642 0.747767
174 1 14.5273 13.49 1 0.115527 -0.482348 0.172113
175 1 14.5273 14.91 1 -1.41007 -0.0245791 1.11561
178 1 14.5273 17.75 1 0.0129976 0.438903 0.0947557
179 1 14.5273 19.17 1 0.0691396 0.433137 0.322013
182 1 14.5273 22.01 1 0.0802955 0.149885 0.859974
204 1 15.7571 11.36 1 -0.0748831 -0.173348 0.194786
205 1 15.7571 12.78 1 -0.118851 -0.18441 0.764577
206 1 16.9868 13.49 1 0.0203809 0.0660485 0.678643
207 1 16.9868 14.91 1 -0.0397434 -0.40058 -0.587915
208 1 15.7571 15.62 1 -0.40776 1.02075 -0.710171
209 1 15.7571 17.04 1 0.890142 -0.472185 -1.30739
210 1 16.9868 17.75 1 0.688684 0.207138 0.826588
211 1 16.9868 19.17 1 -0.22161 0.0348344 -0.506777
212 1 15.7571 19.88 1 -0.850249 -0.51357 0.443934
213 1 15.7571 21.3 1 -0.854009 -0.125024 -0.982982
214 1 16.9868 22.01 1 0.155649 0.182822 -1.11475
236 1 18.2166 11.36 1 0.254152 0.66089 -0.0996284
237 1 18.2166 12.78 1 -0.410783 0.450417 0.514973
238 1 19.4463 13.49 1 -0.405847 -0.471605 -0.928859
239 1 19.4463 14.91 1 -0.618279 -0.642457 -0.3921
240 1 18.2166 15.62 1 -0.67327 -0.193749 0.339828
241 1 18.2166 17.04 1 -0.808046 0.722539 -0.0721329
242 1 19.4463 17.75 1 -1.10481 -0.232014 -0.0296111
243 1 19.4463 19.17 1 -1.15649 0.211281 -1.07013
244 1 18.2166 19.88 1 0.657185 -0.0699763 -0.761242
245 1 18.2166 21.3 1 0.746155 0.844234 -0.0362514
246 1 19.4463 22.01 1 0.475387 1.10919 -0.251833
268 1 20.6761 11.36 1 -1.3029 0.827441 -0.0920569
269 1 20.6761 12.78 1 0.673983 -0.628258 0.105339
270 1 21.9059 13.49 1 -0.049492 0.642701 -0.482774
271 1 21.9059 14.91 1 -0.661443 0.189974 -1.17465
272 1 20.6761 15.62 1 -0.54917 0.128808 -0.51081
273 1 20.6761 17.04 1 0.236562 0.240846 -0.677907
274 1 21.9059 17.75 1 0.108599 1.27125 0.179191
275 1 21.9059 19.17 1 0.49946 0.345978 -0.90737
276 1 20.6761 19.88 1 -0.404893 0.645674 0.129605
277 1 20.6761 21.3 1 -0.201244 -0.781177 -0.206732
278 1 21.9059 22.01 1 1.00829 -0.04443 -0.0729052
300 1 23.1356 11.36 1 0.190572 -0.322443 0.494363
301 1 23.1356 12.78 1 -0.257388 0.135199 -0.0727362
302 1 24.3654 13.49 1 0.496853 -0.649119 0.258481
303 1 24.3654 14.91 1 0.241781 -0.0765096 -0.581013
304 1 23.1356 15.62 1 -0.0360746 -0.776562 -1.79532
305 1 23.1356 17.04 1 0.847412 -0.695222 0.259241
306 1 24.3654 17.75 1 0.129383 -0.120314 0.69986
307 1 24.3654 19.17 1 -0.0753445 -0.210117 -1.24584
308 1 23.1356 19.88 1 -0.163481 -0.894296 -0.125364
309 1 23.1356 21.3 1 1.11118 0.215359 0.252227
310 1 24.3654 22.01 1 0.0208681 -0.052776 -1.03839
332 1 25.5951 11.36 1 -1.08791 0.422108 -0.557687
333 1 25.5951 12.78 1 0.13434 1.04677 0.0315573
336 1 25.5951 15.62 1 -0.67265 -1.20983 0.902853
337 1 25.5951 17.04 1 -0.429207 0.663295 -1.56497
340 1 25.5951 19.88 1 -0.728371 -0.447921 1.13199
341 1 25.5951 21.3 1 0.332492 0.0216284 -1.00853
334 1 26.8249 13.49 1 -0.834291 0.618136 -0.71625
335 1 26.8249 14.91 1 -0.439427 -0.739378 0.617487
338 1 26.8249 17.75 1 0.0321581 -0.0469615 0.0964259
339 1 26.8249 19.17 1 0.100545 0.658601 -0.0282296
342 1 26.8249 22.01 1 0.660445 0.209839 -1.18747
364 1 28.0546 11.36 1 0.375703 -0.0851292 -0.280959
365 1 28.0546 12.78 1 0.803156 0.393828 0.547859
366 1 29.2844 13.49 1 -0.575165 1.0252 0.0430413
367 1 29.2844 14.91 1 0.0141403 -0.496747 0.542752
368 1 28.0546 15.62 1 -0.32491 0.446325 0.330966
369 1 28.0546 17.04 1 -0.15008 -0.01209 0.887857
370 1 29.2844 17.75 1 -0.571853 -0.674355 0.00479653
371 1 29.2844 19.17 1 0.0110032 -0.105994 -0.799992
372 1 28.0546 19.88 1 -1.63666 0.615852 0.566927
373 1 28.0546 21.3 1 -0.213656 -0.158327 -0.0224925
374 1 29.2844 22.01 1 1.04212 0.220821 0.193306
396 1 30.5141 11.36 1 0.869002 -0.773914 -0.110828
397 1 30.5141 12.78 1 0.174178 -0.22396 0.135511
398 1 31.7439 13.49 1 -1.20284 -0.871988 -0.369687
399 1 31.7439 14.91 1 0.435885 -0.18608 0.271545
400 1 30.5141 15.62 1 0.113804 -0.137715 1.60084
401 1 30.5141 17.04 1 -0.0226623 0.794006 -0.351612
402 1 31.7439 17.75 1 0.431438 -0.388416 -0.0808883
403 1 31.7439 19.17 1 -0.654766 1.0951 -0.2948
404 1 30.5141 19.88 1 -0.552012 0.386908 -0.0024729
405 1 30.5141 21.3 1 -0.101244 -0.458867 -0.439185
406 1 31.7439 22.01 1 -0.47629 1.05808 -0.314137
428 1 32.9737 11.36 1 -0.645735 0.196449 0.15166
429 1 32.9737 12.78 1 -0.347699 0.797383 -0.729772
430 1 34.2034 13.49 1 0.473567 -0.421568 -0.959964
431 1 34.2034 14.91 1 -0.558902 -0.157184 -0.308613
432 1 32.9737 15.62 1 -0.533988 0.793029 -0.319772
433 1 32.9737 17.04 1 -0.982878 0.65166 -0.959416
434 1 34.2034 17.75 1 1.20477 0.470387 0.680117
435 1 34.2034 19.17 1 0.504508 0.462434 0.433746
436 1 32.9737 19.88 1 -0.0590422 0.454589 -0.448678
437 1 32.9737 21.3 1 0.462671 -0.402179 -0.185789
438 1 34.2034 22.01 1 -0.560907 0.993514 0.465318
460 1 35.4332 11.36 1 0.0415511 -0.470083 -0.104423
461 1 35.4332 12.78 1 1.78883 0.154111 -0.794946
462 1 36.6629 13.49 1 -0.560841 0.304209 1.1352
463 1 36.6629 14.91 1 0.663561 -0.361433 -0.439614
464 1 35.4332 15.62 1 -0.1079 0.805009 -1.1593
465 1 35.4332 17.04 1 0.67547 0.446717 -1.57838
466 1 36.6629 17.75 1 0.130149 0.191836 1.08264
467 1 36.6629 19.17 1 -0.223878 0.283708 -0.60971
468 1 35.4332 19.88 1 -0.0965544 0.0239038 0.787049
469 1 35.4332 21.3 1 0.29786 0.103907 0.527003
470 1 36.6629 22.01 1 0.0106477 -0.350604 1.08765
492 1 37.8927 11.36 1 0.900763 0.127047 -0.0864122
493 1 37.8927 12.78 1 0.339097 -0.618826 0.151202
494 1 39.1224 13.49 1 0.145211 -0.395592 -0.246707
495 1 39.1224 14.91 1 0.477818 0.253994 0.387152
496 1 37.8927 15.62 1 0.0606943 0.19038 0.374854
497 1 37.8927 17.04 1 -0.336157 -0.495652 -0.0896093
498 1 39.1224 17.75 1 0.0335957 0.0500846 0.557376
499 1 39.1224 19.17 1 -1.01693 0.518647 -0.750161
500 1 37.8927 19.88 1 0.045183 -0.262297 -0.393562
501 1 37.8927 21.3 1 0.204225 0.473158 0.442577
502 1 39.1224 22.01 1 0.753235 -0.442087 -0.289666
23 1 2.22976 23.43 1 -1.3781 0.160091 -0.152287
24 1 1 24.14 1 -1.25406 0.491818 -0.722721
25 1 1 25.56 1 0.163758 -0.80094 -1.06107
26 1 2.22976 26.27 1 1.22127 -0.490343 0.387152
27 1 2.22976 27.69 1 -1.3231 -0.457047 1.15562
28 1 1 28.4 1 -0.274204 -0.058107 0.635347
29 1 1 29.82 1 0.982667 0.530605 0.406934
30 1 2.22976 30.53 1 0.930102 -0.448451 -0.282805
31 1 2.22976 31.95 1 -0.338307 -0.672921 -0.666214
32 1 1 32.66 1 -0.425757 -0.968455 -0.296392
55 1 4.68927 23.43 1 -0.488807 0.222533 0.164005
56 1 3.45951 24.14 1 -0.563141 -0.989074 -0.0460214
57 1 3.45951 25.56 1 -0.344838 -0.120988 -1.49311
58 1 4.68927 26.27 1 0.334673 -0.127185 0.508717
59 1 4.68927 27.69 1 0.250035 -0.674272 -0.523781
60 1 3.45951 28.4 1 0.472649 -0.367391 0.379304
61 1 3.45951 29.82 1 -0.472885 1.17641 -0.332832
62 1 4.68927 30.53 1 -0.188147 0.123197 -0.532107
63 1 4.68927 31.95 1 -0.282451 -0.286859 -0.319393
64 1 3.45951 32.66 1 -0.432257 0.182423 0.185282
87 1 7.14878 23.43 1 -0.79109 -0.327172 -0.0535054
88 1 5.91902 24.14 1 -0.859463 0.237388 0.25566
89 1 5.91902 25.56 1 1.8755 -0.0790618 -0.088044
90 1 7.14878 26.27 1 -0.380132 0.737795 0.509203
91 1 7.14878 27.69 1 0.459876 0.426697 -0.607182
92 1 5.91902 28.4 1 -0.238007 0.476617 -0.50657
93 1 5.91902 29.82 1 0.460757 -0.469696 1.12012
94 1 7.14878 30.53 1 -0.0968961 -0.942937 -0.126985
95 1 7.14878 31.95 1 0.0761376 1.10377 -0.657077
96 1 5.91902 32.66 1 0.128605 -0.510357 0.318278
119 1 9.60829 23.43 1 0.918831 -0.827928 0.900797
120 1 8.37854 24.14 1 0.501562 0.100958 -0.294575
121 1 8.37854 25.56 1 0.580425 0.453692 0.670618
122 1 9.60829 26.27 1 0.196757 -0.344878 -0.913872
123 1 9.60829 27.69 1 -0.0148738 -0.0464271 0.982851
124 1 8.37854 28.4 1 -0.82493 -0.889583 0.702873
125 1 8.37854 29.82 1 0.789456 -0.275404 0.433475
126 1 9.60829 30.53 1 -0.147408 0.281034 -0.154463
127 1 9.60829 31.95 1 0.721206 -0.904379 0.178462
128 1 8.37854 32.66 1 -0.12821 0.046147 0.169257
151 1 12.0678 23.43 1 -0.424077 0.712359 -0.378989
152 1 10.838 24.14 1 1.56305 -0.0289511 -0.448165
153 1 10.838 25.56 1 -1.00529 0.130957 0.609975
154 1 12.0678 26.27 1 -0.0304044 0.662596 1.15021
155 1 12.0678 27.69 1 -0.0566319 1.30106 -0.695812
156 1 10.838 28.4 1 -0.268662 0.184791 -0.19163
157 1 10.838 29.82 1 -0.119383 -0.118442 1.242
158 1 12.0678 30.53 1 0.258665 0.732145 0.61961
159 1 12.0678 31.95 1 0.509926 0.839378 -0.123344
160 1 10.838 32.66 1 -0.345116 0.313668 -0.888739
184 1 13.2976 24.14 1 0.0479623 -0.654994 0.780257
185 1 13.2976 25.56 1 0.14882 -0.919595 0.64366
188 1 13.2976 28.4 1 0.0770939 -0.924256 0.596327
189 1 13.2976 29.82 1 0.0164839 -0.435031 -0.249174
192 1 13.2976 32.66 1 0.0681573 0.0321077 0.0071351
183 1 14.5273 23.43 1 -0.48206 -0.768556 -0.054844
186 1 14.5273 26.27 1 -0.427225 -0.0794396 -0.044561
187 1 14.5273 27.69 1 0.322679 1.19195 -0.475916
190 1 14.5273 30.53 1 0.469004 1.69052 0.153066
191 1 14.5273 31.95 1 -0.17244 0.708521 0.481254
215 1 16.9868 23.43 1 -0.657823 0.254889 -0.0923389
216 1 15.7571 24.14 1 0.263632 0.494751 0.117305
217 1 15.7571 25.56 1 0.888138 -0.351579 0.1426
218 1 16.9868 26.27 1 0.203992 0.0465071 0.706855
219 1 16.9868 27.69 1 -0.00574787 0.610261 -1.53256
220 1 15.7571 28.4 1 -0.426009 0.636085 -0.710209
221 1 15.7571 29.82 1 0.342615 -0.740415 0.495167
222 1 16.9868 30.53 1 1.00487 -0.0148671 -0.317951
223 1 16.9868 31.95 1 -0.799198 -0.597002 -0.123259
224 1 15.7571 32.66 1 0.191159 -0.230025 -0.0506337
247 1 19.4463 23.43 1 -0.251353 0.959969 0.141821
248 1 18.2166 24.14 1 -0.188912 0.155568 0.229806
249 1 18.2166 25.56 1 0.938124 0.110447 0.792295
250 1 19.4463 26.27 1 -0.519261 -0.253899 -0.434833
251 1 19.4463 27.69 1 -0.451758 -1.73723 0.0890775
252 1 18.2166 28.4 1 0.0501497 -0.308931 0.130769
253 1 18.2166 29.82 1 0.330534 1.35832 -0.791306
254 1 19.4463 30.53 1 -0.383702 0.131737 -0.371821
255 1 19.4463 31.95 1 -0.0474437 -0.242253 -0.178223
256 1 18.2166 32.66 1 0.186823 1.11806 -0.377142
279 1 21.9059 23.43 1 -0.561737 0.0714429 -0.363168
280 1 20.6761 24.14 1 0.355824 -0.461412 0.197349
281 1 20.6761 25.56 1 1.05239 -0.402281 -0.549305
282 1 21.9059 26.27 1 -0.566538 0.637683 0.576576
283 1 21.9059 27.69 1 -0.201473 -0.361505 0.841369
284 1 20.6761 28.4 1 0.438872 -0.206044 1.69891
285 1 20.6761 29.82 1 0.653883 -0.647834 0.424598
286 1 21.9059 30.53 1 0.36529 -1.18772 0.598414
287 1 21.9059 31.95 1 0.234675 -0.373605 0.340582
288 1 20.6761 32.66 1 0.336219 -0.808433 -0.131824
311 1 24.3654 23.43 1 0.643536 -0.297527 -0.49502
312 1 23.1356 24.14 1 0.594177 -0.637817 -0.480449
313 1 23.1356 25.56 1 0.213498 -0.547615 -0.0173278
314 1 24.3654 26.27 1 -0.540107 0.4685 -0.0477569
315 1 24.3654 27.69 1 -0.0769265 -0.0318728 0.429191
316 1 23.1356 28.4 1 0.476984 -1.00247 1.23
317 1 23.1356 29.82 1 -0.118878 0.379213 -0.204023
318 1 24.3654 30.53 1 -0.116297 -0.184453 -0.415344
319 1 24.3654 31.95 1 -0.447679 0.674894 0.408862
320 1 23.1356 32.66 1 -0.205901 0.953698 0.840868
344 1 25.5951 24.14 1 -1.17117 -0.034967 0.585522
345 1 25.5951 25.56 1 0.504756 0.851526 -0.801871
348 1 25.5951 28.4 1 -0.219724 -0.60255 -0.242451
349 1 25.5951 29.82 1 -0.48719 -1.02111 1.83887
352 1 25.5951 32.66 1 -0.769359 -0.730673 0.0349081
343 1 26.8249 23.43 1 -0.725423 -0.116902 1.757
346 1 26.8249 26.27 1 -0.0350085 -0.182553 0.214341
347 1 26.8249 27.69 1 -0.463463 0.309799 0.886443
350 1 26.8249 30.53 1 -0.329516 -1.58664 -0.303736
351 1 26.8249 31.95 1 0.883434 -0.113809 -0.477228
375 1 29.2844 23.43 1 -0.994124 -0.440633 -0.0826282
376 1 28.0546 24.14 1 -0.630162 0.188831 0.183922
377 1 28.0546 25.56 1 -0.380865 0.91817 0.589633
378 1 29.2844 26.27 1 0.14114 -1.0962 -0.360965
379 1 29.2844 27.69 1 0.158162 -0.0218692 0.38002
380 1 28.0546 28.4 1 -0.867809 -0.699684 -0.0432897
381 1 28.0546 29.82 1 -0.605119 0.522779 -0.0514563
382 1 29.2844 30.53 1 0.00467151 0.0590147 0.330402
383 1 29.2844 31.95 1 -0.363701 -0.0717421 -0.601658
384 1 28.0546 32.66 1 0.120936 -0.0590829 -0.248769
407 1 31.7439 23.43 1 -0.113142 0.268037 0.50417
408 1 30.5141 24.14 1 0.506313 0.1958 0.424691
409 1 30.5141 25.56 1 -0.237419 0.34003 -1.20596
410 1 31.7439 26.27 1 0.275029 0.841833 -0.446694
411 1 31.7439 27.69 1 0.137381 -0.128346 0.179587
412 1 30.5141 28.4 1 0.549335 0.613719 -0.139674
413 1 30.5141 29.82 1 0.14428 -0.673708 0.974367
414 1 31.7439 30.53 1 0.273313 0.441333 -0.700385
415 1 31.7439 31.95 1 -0.288963 0.141552 0.186628
416 1 30.5141 32.66 1 -0.133261 -0.273875 0.0342412
439 1 34.2034 23.43 1 -0.0567402 -0.3257 0.0618722
440 1 32.9737 24.14 1 -0.0585243 0.0266472 0.373143
441 1 32.9737 25.56 1 0.392238 -0.790554 -0.987201
442 1 34.2034 26.27 1 -0.289932 0.399626 0.233484
443 1 34.2034 27.69 1 0.873285 0.877441 -0.529663
444 1 32.9737 28.4 1 -0.204612 -1.12349 0.765058
445 1 32.9737 29.82 1 0.00953829 -0.0985614 0.727658
446 1 34.2034 30.53 1 -0.595076 0.336693 0.264819
447 1 34.2034 31.95 1 0.640991 -0.323722 -0.15795
448 1 32.9737 32.66 1 -0.476275 -0.587515 -0.56461
471 1 36.6629 23.43 1 -0.599014 -0.43588 -0.269116
472 1 35.4332 24.14 1 -0.493331 -0.886172 -1.09656
473 1 35.4332 25.56 1 -0.0374912 -0.123291 0.123082
474 1 36.6629 26.27 1 0.717609 0.238584 -0.203037
475 1 36.6629 27.69 1 -0.892364 -0.537901 0.0219545
476 1 35.4332 28.4 1 1.16627 -0.523262 0.961601
477 1 35.4332 29.82 1 1.39897 0.40007 -0.0704992
478 1 36.6629 30.53 1 -0.0323546 -0.436295 -0.00823239
479 1 36.6629 31.95 1 -0.631797 -0.602275 -0.419113
480 1 35.4332 32.66 1 -0.0964439 -0.880433 0.0166976
503 1 39.1224 23.43 1 0.16675 1.08406 -0.0781526
504 1 37.8927 24.14 1 0.198914 0.636281 0.501222
505 1 37.8927 25.56 1 -0.193862 0.725084 -0.179407
506 1 39.1224 26.27 1 -0.147101 -0.582246 -0.765041
507 1 39.1224 27.69 1 -0.329837 0.41642 -0.0948041
508 1 37.8927 28.4 1 -0.832645 0.249781 -0.0247898
509 1 37.8927 29.82 1 0.86288 1.12016 -0.0254869
510 1 39.1224 30.53 1 -0.555245 0.347713 0.516289
511 1 39.1224 31.95 1 -0.798222 -0.538392 -0.33509
512 1 37.8927 32.66 1 0.969767 0.2014 0.93932
ITEM: TIMESTEP
1
ITEM: NUMBER OF ATOMS
512
ITEM: BOX BOUNDS mm mm mm
0.0000000000000000e+00 4.0122438274590991e+01
-3.4080000000000000e-03 3.4079999999999998e+01
0.0000000000000000e+00 2.0000000000000000e+00
ITEM: ATOMS id type x y z vx vy vz
1 1 0.999657 0.000176321 1.00004 -0.186441 0.640855 0.076674
2 1 2.22966 0.709894 0.999984 -0.75771 -0.505747 -0.0324507
3 1 2.22971 2.13007 0.999391 -0.0634544 -0.11538 -1.21841
4 1 0.999514 2.84009 0.999394 -0.827183 0.596442 -1.2115
5 1 1.00031 4.26024 0.999866 0.767735 0.0687668 -0.268087
6 1 2.2298 4.96999 1.00041 0.120665 0.250642 0.814823
7 1 2.23045 6.39044 1.00015 1.41078 0.617962 0.299308
8 1 0.999798 7.10066 1.0002 -0.254682 1.72231 0.40681
9 1 1.00035 8.5199 0.99993 0.845084 -0.606223 -0.140525
10 1 2.22976 9.2303 1.00003 0.0347414 0.857106 0.0586508
11 1 2.23017 10.6496 1.0002 0.858921 -1.00133 0.406077
33 1 3.45966 0.000600539 1.00004 0.293723 1.60357 0.0707466
34 1 4.68896 0.709407 0.999911 -0.59944 -1.38797 -0.177553
35 1 4.6893 2.13016 1.00009 0.0672807 0.322358 0.179079
36 1 3.45941 2.84043 0.999646 -0.195697 0.857449 -0.706947
37 1 3.4592 4.2603 0.999817 -0.609214 0.59636 -0.3652
38 1 4.68969 4.97008 0.999501 0.849326 0.151194 -0.998739
39 1 4.6892 6.39019 0.999674 -0.131729 0.382932 -0.652383
40 1 3.45977 7.0999 1.00015 0.523516 -0.192358 0.299269
41 1 3.45989 8.51951 1.00031 0.742847 -0.967522 0.624616
42 1 4.68907 9.22968 1.00024 -0.385533 -0.630196 0.485767
43 1 4.68918 10.6501 1.00017 -0.172803 0.294297 0.347405
65 1 5.91934 3.1088e-05 0.999754 0.624911 0.468854 -0.492667
66 1 7.14877 0.709667 1 -0.0157691 -0.870411 0.00107959
67 1 7.14893 2.13001 1.00009 0.297912 0.0183302 0.171798
68 1 5.91858 2.84003 0.999925 -0.889016 0.0592921 -0.150856
69 1 5.91922 4.25971 0.999668 0.385118 -0.582229 -0.662861
70 1 7.14866 4.96987 0.999967 -0.241228 -0.254165 -0.0661283
71 1 7.14891 6.39007 1.00034 0.260277 0.126793 0.68868
72 1 5.91903 7.09954 0.999964 0.0166055 -0.912892 -0.0710115
73 1 5.91899 8.51989 1.00007 -0.0567708 -0.226075 0.146099
74 1 7.14882 9.23035 1.0005 0.084732 0.688275 1.00031
75 1 7.14898 10.6501 1.00013 0.393707 0.130571 0.265656
97 1 8.37849 0.000176893 1.00054 -0.0884204 0.759775 1.07827
98 1 9.60808 0.709941 0.999953 -0.433114 -0.324445 -0.0939293
99 1 9.60855 2.12997 1.00019 0.517371 -0.0624761 0.387414
100 1 8.37898 2.84023 0.999607 0.87464 0.456492 -0.785939
101 1 8.37859 4.25984 1.00006 0.115265 -0.314108 0.120054
102 1 9.60835 4.96981 1.0003 0.119738 -0.36385 0.598763
103 1 9.60871 6.39039 0.999971 0.825984 0.768104 -0.0587303
104 1 8.37836 7.09982 0.999853 -0.35488 -0.360899 -0.294335
105 1 8.37843 8.52019 1.00043 -0.204245 0.385761 0.865083
106 1 9.60813 9.23041 0.999931 -0.320899 0.818481 -0.138529
107 1 9.60842 10.65 1.00011 0.256948 -0.0371975 0.215066
129 1 10.8373 -0.000142914 0.999862 -1.49752 0.12361 -0.275197
130 1 12.068 0.710147 0.99979 0.416041 0.080993 -0.418809
131 1 12.0678 2.13029 1.00084 -0.0123572 0.576872 1.67296
132 1 10.8378 2.84014 0.999738 -0.583371 0.280353 -0.523336
133 1 10.8381 4.26034 0.99996 0.020683 0.681715 -0.0787742
134 1 12.068 4.96949 1.00016 0.372672 -0.998984 0.314073
135 1 12.0676 6.39045 1.00039 -0.361979 0.891524 0.770931
136 1 10.8384 7.10042 0.999658 0.718185 0.833711 -0.683467
137 1 10.8381 8.52029 0.999619 0.123088 0.572753 -0.760721
138 1 12.0682 9.23005 0.99999 0.72525 0.0952064 -0.0200717
139 1 12.0679 10.65 1.00001 0.224102 0.0178733 0.0179214
161 1 13.298 2.283e-06 0.999665 0.894684 0.412039 -0.670072
164 1 13.2972 2.83991 0.999818 -0.728167 -0.185443 -0.362852
165 1 13.2972 4.25992 1.00029 -0.638504 -0.165389 0.588402
168 1 13.2976 7.09976 0.999937 -0.0174764 -0.487979 -0.125025
169 1 13.2975 8.51979 1.00053 -0.165961 -0.424819 1.0603
162 1 14.5276 0.709751 1.00021 0.58966 -0.704993 0.417144
163 1 14.5274 2.1301 1.00019 0.21624 0.207341 0.372734
166 1 14.5279 4.96945 1.00018 1.24614 -1.10166 0.357294
167 1 14.5273 6.39011 1.0002 -0.0897967 0.210742 0.403599
170 1 14.5272 9.23009 1.00015 -0.155224 0.173147 0.308855
171 1 14.5273 10.6499 1.00022 0.00645874 -0.158138 0.436933
193 1 15.7577 0.000350096 0.999949 1.17417 1.10283 -0.102717
194 1 16.9864 0.709299 1.00016 -0.859611 -1.60033 0.318478
195 1 16.9872 2.13062 0.999835 0.811387 1.22443 -0.330697
196 1 15.7573 2.83999 0.999761 0.521389 -0.011553 -0.477648
197 1 15.7571 4.25986 1.00001 0.0549715 -0.279838 0.016473
198 1 16.9868 4.97026 0.999933 -0.0435346 0.506506 -0.132537