ITEM: TIMESTEP
0
ITEM: NUMBER OF ATOMS
20
ITEM: BOX BOUNDS mm mm mm
0.0000000000000000e+00 6.9190242934956112e+00
-8.5200000000000000e-04 8.5199999999999996e+00
0.0000000000000000e+00 2.0000000000000000e+00
ITEM: ATOMS id type x y z vx vy vz
1 1 4.68927 0 1 -1.18287 -0.019777 0.201378
2 1 5.91902 0.71 1 0.343294 -0.00214368 0.0946638
3 1 5.91902 2.13 1 -0.137472 0.306562 -1.06886
4 1 4.68927 2.84 1 -1.11626 -0.304465 -1.06176
5 1 4.68927 4.26 1 0.452899 0.790496 -0.136666
6 1 5.91902 4.97 1 0.040315 -0.349224 0.925732
7 1 5.91902 6.39 1 1.31568 1.03116 0.419488
8 1 4.68927 7.1 1 -0.559033 0.810127 0.525188
9 1 2.22976 0 1 0.526541 0.121829 -0.0116309
10 1 3.45951 0.71 1 -0.0487358 0.259371 0.183508
11 1 3.45951 2.13 1 0.766415 -0.567633 0.52455
12 1 2.22976 2.84 1 0.186383 0.00983554 0.210162
13 1 2.22976 4.26 1 0.86819 -0.877036 -0.401087
14 1 3.45951 4.97 1 -0.140419 0.0208663 -0.845594
15 1 3.45951 6.39 1 -0.647649 -0.0635254 0.0762653
16 1 2.22976 7.1 1 -1.52657 -0.870565 -0.200774
17 1 1 0.71 1 0.145284 0.0565673 -0.0744729
18 1 1 2.13 1 0.0342609 -0.0982461 -0.156115
19 1 1 4.97 1 0.445247 -0.10702 0.183145
20 1 1 6.39 1 0.234495 -0.147177 0.612877
ITEM: TIMESTEP
1
ITEM: NUMBER OF ATOMS
20
ITEM: BOX BOUNDS mm mm mm
0.0000000000000000e+00 6.9190242934956112e+00
-8.5200000000000000e-04 8.5199999999999996e+00
0.0000000000000000e+00 2.0000000000000000e+00
ITEM: ATOMS id type x y z vx vy vz
1 1 4.68882 0.000154448 1.0001 -0.608457 0.63687 0.201406
2 1 5.91909 0.710062 1.00005 -0.0931074 0.247002 0.0944993
3 1 5.91888 2.12995 0.999466 -0.424423 -0.509563 -1.0688
4 1 4.6887 2.83998 0.999469 -1.16294 0.215194 -1.06119
5 1 4.68948 4.26027 0.999932 0.394384 0.269885 -0.136961
6 1 5.91897 4.97003 1.00046 -0.242139 0.473583 0.925628
7 1 5.91957 6.39045 1.00021 0.878488 0.777893 0.419583
8 1 4.68913 7.10024 1.00026 0.0102596 0.151016 0.525179
9 1 2.22988 0.000225251 0.999994 -0.0430193 0.778001 -0.0116084
10 1 3.45949 0.710024 1.00009 -0.049945 -0.162175 0.183593
11 1 3.4599 2.12972 1.00026 0.758715 -0.5631 0.524041
12 1 2.22986 2.84013 1.00011 0.242178 0.519767 0.209966
13 1 2.2302 4.25943 0.999799 0.918021 -1.38698 -0.400853
14 1 3.45944 4.97001 0.999577 -0.138182 0.0187546 -0.845215
15 1 3.45919 6.39007 1.00004 -0.64716 0.359322 0.0761054
16 1 2.22885 7.0994 0.9999 -2.08564 -1.52367 -0.200715
17 1 1.00018 0.710091 0.999963 0.578356 0.30605 -0.0744895
18 1 1.00009 2.12975 0.999922 0.32075 -0.913551 -0.156026
19 1 1.00029 4.97015 1.00009 0.732606 0.707281 0.183059
20 1 1.00023 6.38986 1.00031 0.661251 -0.401582 0.612799
ITEM: TIMESTEP
2
ITEM: NUMBER OF ATOMS
20
ITEM: BOX BOUNDS mm mm mm
0.0000000000000000e+00 6.9190242934956112e+00
-8.5200000000000000e-04 8.5199999999999996e+00
0.0000000000000000e+00 2.0000000000000000e+00
ITEM: ATOMS id type x y z vx vy vz
1 1 4.68866 0.00063687 1.0002 -0.0261884 1.28964 0.201489
2 1 5.91893 0.710247 1.00009 -0.53242 0.489823 0.0940094
3 1 5.9186 2.12949 0.998931 -0.716541 -1.31491 -1.06862
4 1 4.68811 2.84022 0.998939 -1.19193 0.733642 -1.0595
5 1 4.68966 4.26027 0.999863 0.330118 -0.251424 -0.137846
6 1 5.91878 4.97047 1.00093 -0.520906 1.29885 0.925318
7 1 5.9199 6.39078 1.00042 0.43675 0.522782 0.419868
8 1 4.68928 7.10015 1.00053 0.577257 -0.509135 0.52515
9 1 2.22971 0.000778001 0.999988 -0.61079 1.42934 -0.0115407
10 1 3.45946 0.709838 1.00018 -0.0535264 -0.580671 0.183849
11 1 3.46027 2.12944 1.00052 0.735775 -0.554397 0.52252
12 1 2.23 2.84052 1.00021 0.298323 1.00917 0.20938
13 1 2.23067 4.25861 0.999599 0.956456 -1.87634 -0.40015
14 1 3.45937 4.97002 0.999155 -0.131482 0.0173091 -0.844079
15 1 3.45886 6.39036 1.00008 -0.645675 0.781672 0.0756251
16 1 2.22767 7.09848 0.999799 -2.62197 -2.16577 -0.200547
17 1 1.00058 0.710306 0.999926 1.00771 0.549841 -0.074539
18 1 1.00032 2.12909 0.999844 0.611505 -1.7164 -0.155759
19 1 1.00073 4.97071 1.00018 1.0259 1.50711 0.182798
20 1 1.00066 6.3896 1.00061 1.07164 -0.660131 0.612573
ITEM: TIMESTEP
3
ITEM: NUMBER OF ATOMS
20
ITEM: BOX BOUNDS mm mm mm
0.0000000000000000e+00 6.9190242934956112e+00
-8.5200000000000000e-04 8.5199999999999996e+00
0.0000000000000000e+00 2.0000000000000000e+00
ITEM: ATOMS id type x y z vx vy vz
1 1 4.68879 0.00144409 1.0003 0.556265 1.93359 0.201629
2 1 5.91856 0.710552 1.00014 -0.969019 0.723197 0.0932048
3 1 5.91817 2.12863 0.998397 -1.01612 -2.09908 -1.06835
4 1 4.6875 2.84071 0.99841 -1.20079 1.23972 -1.05668
5 1 4.68981 4.26001 0.999794 0.263351 -0.762303 -0.139314
6 1 5.91845 4.97133 1.00139 -0.798728 2.11584 0.9248
7 1 5.92001 6.39098 1.00063 -0.00403042 0.269154 0.420339
8 1 4.68971 7.09973 1.00079 1.13459 -1.16534 0.5251
9 1 2.22927 0.00165459 0.999983 -1.16929 2.07088 -0.0114275
10 1 3.45943 0.709443 1.00028 -0.0593237 -0.992275 0.184275
11 1 3.46063 2.12916 1.00078 0.698073 -0.54177 0.519993
12 1 2.23016 2.84114 1.00031 0.351746 1.46734 0.208414
13 1 2.23116 4.25756 0.999399 0.98093 -2.33424 -0.39898
14 1 3.45931 4.97003 0.998733 -0.120359 0.0167606 -0.842182
15 1 3.45854 6.39086 1.00011 -0.643126 1.19953 0.0748226
16 1 2.22623 7.09723 0.999699 -3.12824 -2.79179 -0.200281
17 1 1.00119 0.710641 0.999888 1.42777 0.784717 -0.0746207
18 1 1.0007 2.12803 0.999766 0.90889 -2.49631 -0.155312
19 1 1.00132 4.97166 1.00027 1.32731 2.28192 0.182353
20 1 1.0013 6.3892 1.00092 1.46011 -0.919537 0.612218
ITEM: TIMESTEP
4
ITEM: NUMBER OF ATOMS
20
ITEM: BOX BOUNDS mm mm mm
0.0000000000000000e+00 6.9190242934956112e+00
-8.5200000000000000e-04 8.5199999999999996e+00
0.0000000000000000e+00 2.0000000000000000e+00
ITEM: ATOMS id type x y z vx vy vz
1 1 4.68922 0.00257046 1.0004 1.13109 2.56376 0.201829
2 1 5.91796 0.71097 1.00019 -1.3972 0.944099 0.0921037
3 1 5.91758 2.12739 0.997863 -1.32511 -2.85186 -1.068
4 1 4.6869 2.84145 0.997882 -1.18759 1.72228 -1.05276
5 1 4.68993 4.25951 0.999724 0.197382 -1.25167 -0.141347
6 1 5.91798 4.97259 1.00185 -1.07829 2.9138 0.924076
7 1 5.9199 6.39105 1.00084 -0.43833 0.0203654 0.420987
8 1 4.69041 7.09899 1.00105 1.67495 -1.81261 0.525028
9 1 2.22854 0.00284888 0.999977 -1.71102 2.69759 -0.0112681
10 1 3.4594 0.708846 1.00037 -0.0670623 -1.39319 0.184869
11 1 3.46097 2.1289 1.00104 0.646411 -0.525249 0.516465
12 1 2.23035 2.84199 1.00042 0.399479 1.88391 0.20708
13 1 2.23166 4.25628 0.9992 0.989276 -2.75003 -0.397347
14 1 3.45925 4.97004 0.998313 -0.104901 0.0171171 -0.839525
15 1 3.45822 6.39156 1.00015 -0.63939 1.60886 0.0736947
16 1 2.22454 7.09568 0.999599 -3.59726 -3.39657 -0.199939
17 1 1.00201 0.711091 0.999851 1.83292 1.0075 -0.0747335
18 1 1.00123 2.12659 0.999689 1.21494 -3.24292 -0.154685
19 1 1.00206 4.97299 1.00037 1.63857 3.02128 0.181711
20 1 1.00212 6.38868 1.00123 1.82114 -1.17647 0.611762
ITEM: TIMESTEP
5
ITEM: NUMBER OF ATOMS
20
ITEM: BOX BOUNDS mm mm mm
0.0000000000000000e+00 6.9190242934956112e+00
-8.5200000000000000e-04 8.5199999999999996e+00
0.0000000000000000e+00 2.0000000000000000e+00
ITEM: ATOMS id type x y z vx vy vz
1 1 4.68992 0.00400785 1.0005 1.69033 3.17515 0.202091
2 1 5.91716 0.711496 1.00023 -1.81117 1.14962 0.0907315
3 1 5.91684 2.12578 0.997329 -1.64496 -3.56329 -1.06761
4 1 4.68632 2.84243 0.997357 -1.15096 2.17031 -1.04775
5 1 4.69001 4.25876 0.999652 0.135426 -1.70858 -0.143917
6 1 5.91737 4.97424 1.00231 -1.36207 3.68205 0.923143
7 1 5.91957 6.391 1.00105 -0.860598 -0.22021 0.4218
8 1 4.69138 7.09792 1.00131 2.19109 -2.44588 0.524934
9 1 2.22756 0.00435218 0.999971 -2.22845 3.30438 -0.0110612
10 1 3.45937 0.70805 1.00046 -0.0763637 -1.7797 0.185632
11 1 3.46128 2.12864 1.0013 0.581889 -0.504591 0.511939
12 1 2.23056 2.84303 1.00052 0.438773 2.24898 0.205391
13 1 2.23215 4.25481 0.999002 0.979803 -3.11345 -0.395257
14 1 3.45921 4.97004 0.997894 -0.0852506 0.0180945 -0.836105
15 1 3.4579 6.39246 1.00019 -0.63428 2.00561 0.0722362
16 1 2.22263 7.09384 0.999499 -4.02204 -3.97491 -0.199545
17 1 1.00302 0.711649 0.999813 2.21748 1.2151 -0.0748762
18 1 1.00191 2.12479 0.999611 1.53122 -3.94605 -0.153876
19 1 1.00296 4.97468 1.00046 1.96088 3.71493 0.180854
20 1 1.00312 6.38803 1.00153 2.14925 -1.42757 0.611241
ITEM: TIMESTEP
6
ITEM: NUMBER OF ATOMS
20
ITEM: BOX BOUNDS mm mm mm
0.0000000000000000e+00 6.9190242934956112e+00
-8.5200000000000000e-04 8.5199999999999996e+00
0.0000000000000000e+00 2.0000000000000000e+00
ITEM: ATOMS id type x y z vx vy vz
1 1 4.69091 0.00574561 1.00061 2.22594 3.76273 0.20242
2 1 5.91615 0.71212 1.00028 -2.20503 1.337 0.0891207
3 1 5.91594 2.12383 0.996795 -1.97658 -4.22371 -1.06721
4 1 4.68575 2.84363 0.996834 -1.09023 2.57311 -1.04167
5 1 4.69006 4.2578 0.99958 0.0804915 -2.12238 -0.146983
6 1 5.91662 4.97627 1.00277 -1.65218 4.40998 0.922001
7 1 5.91904 6.39083 1.00126 -1.26525 -0.449199 0.422759
8 1 4.6926 7.09654 1.00158 2.67583 -3.06004 0.524817
9 1 2.22632 0.00615326 0.999966 -2.71405 3.88608 -0.0108051
10 1 3.45933 0.707066 1.00055 -0.0867622 -2.14813 0.186563
11 1 3.46155 2.12839 1.00156 0.505886 -0.479259 0.506415
12 1 2.23079 2.84424 1.00062 0.467198 2.55336 0.203366
13 1 2.23263 4.25317 0.998805 0.951359 -3.41489 -0.392718
14 1 3.45917 4.97005 0.997476 -0.0616138 0.0190908 -0.831919
15 1 3.45759 6.39356 1.00022 -0.627537 2.38569 0.0704399
16 1 2.22052 7.09171 0.999399 -4.39582 -4.52153 -0.199129
17 1 1.00422 0.712306 0.999776 2.57569 1.40451 -0.0750472
18 1 1.00276 2.12264 0.999535 1.85878 -4.59584 -0.152883
19 1 1.00402 4.9767 1.00055 2.29484 4.35284 0.179761
20 1 1.00427 6.38725 1.00184 2.43905 -1.6694 0.6107
ITEM: TIMESTEP
7
ITEM: NUMBER OF ATOMS
20
ITEM: BOX BOUNDS mm mm mm
0.0000000000000000e+00 6.9190242934956112e+00
-8.5200000000000000e-04 8.5199999999999996e+00
0.0000000000000000e+00 2.0000000000000000e+00
ITEM: ATOMS id type x y z vx vy vz
1 1 4.69215 0.00777058 1.00071 2.72978 4.32139 0.202823
2 1 5.91495 0.712833 1.00032 -2.5728 1.50365 0.0873106
3 1 5.91487 2.12156 0.996262 -2.3202 -4.82389 -1.06686
4 1 4.68523 2.84501 0.996315 -1.00538 2.92045 -1.03454
5 1 4.69009 4.25664 0.999505 0.035272 -2.48286 -0.1505
6 1 5.91572 4.97865 1.00323 -1.95026 5.08719 0.92065
7 1 5.91831 6.39055 1.00147 -1.64669 -0.663255 0.423843
8 1 4.69406 7.09486 1.00184 3.12211 -3.64991 0.524679
9 1 2.22484 0.00823826 0.999961 -3.16034 4.43742 -0.010498
10 1 3.45928 0.705902 1.00065 -0.0977251 -2.49493 0.187661
11 1 3.46178 2.12816 1.00181 0.420021 -0.448456 0.499891
12 1 2.23103 2.84558 1.00072 0.482729 2.78875 0.201025
13 1 2.2331 4.25139 0.998609 0.903375 -3.64558 -0.389743
14 1 3.45914 4.97006 0.997062 -0.0342711 0.0192063 -0.826964
15 1 3.45728 6.39485 1.00026 -0.618823 2.7451 0.0682968
16 1 2.21824 7.08932 0.9993 -4.7122 -5.03117 -0.198725
17 1 1.0056 0.713053 0.999738 2.90175 1.57287 -0.0752448
18 1 1.00377 2.12019 0.999459 2.19799 -5.1828 -0.151705
19 1 1.00525 4.97903 1.00064 2.6404 4.92535 0.178409
20 1 1.00556 6.38636 1.00214 2.68527 -1.89851 0.610192
ITEM: TIMESTEP
8
ITEM: NUMBER OF ATOMS
20
ITEM: BOX BOUNDS mm mm mm
0.0000000000000000e+00 6.9190242934956112e+00
-8.5200000000000000e-04 8.5199999999999996e+00
0.0000000000000000e+00 2.0000000000000000e+00
ITEM: ATOMS id type x y z vx vy vz
1 1 4.69364 0.010067 1.00081 3.19372 4.84595 0.203307
2 1 5.91358 0.713623 1.00037 -2.90843 1.64723 0.0853468
3 1 5.91362 2.119 0.995728 -2.67542 -5.35509 -1.06662
4 1 4.68475 2.84655 0.9958 -0.897091 3.20285 -1.02638
5 1 4.6901 4.25532 0.999429 0.0020321 -2.78053 -0.15441
6 1 5.91467 4.98136 1.00369 -2.25738 5.70359 0.91909
7 1 5.91739 6.39016 1.00169 -1.99928 -0.859083 0.425024
8 1 4.69573 7.09289 1.0021 3.52301 -4.21023 0.52452
9 1 2.22315 0.0105907 0.999955 -3.55992 4.95307 -0.0101374
10 1 3.45923 0.704571 1.00074 -0.108677 -2.81664 0.188926
11 1 3.46197 2.12794 1.00206 0.326119 -0.411206 0.492362
12 1 2.23127 2.84702 1.00082 0.483826 2.94807 0.198391
13 1 2.23354 4.24952 0.998415 0.835887 -3.79796 -0.386344
14 1 3.45913 4.97007 0.99665 -0.00358593 0.0173072 -0.821238
15 1 3.45697 6.39631 1.00029 -0.607719 3.07985 0.065796
16 1 2.21581 7.08668 0.999201 -4.96519 -5.49857 -0.198374
17 1 1.00713 0.713879 0.999701 3.18983 1.71747 -0.0754671
18 1 1.00496 2.11746 0.999383 2.54861 -5.69796 -0.150345
19 1 1.00666 4.98163 1.00072 2.9968 5.42329 0.176772
20 1 1.00696 6.38535 1.00245 2.88286 -2.11141 0.609777
ITEM: TIMESTEP
9
ITEM: NUMBER OF ATOMS
20
ITEM: BOX BOUNDS mm mm mm
0.0000000000000000e+00 6.9190242934956112e+00
-8.5200000000000000e-04 8.5199999999999996e+00
0.0000000000000000e+00 2.0000000000000000e+00
ITEM: ATOMS id type x y z vx vy vz
1 1 4.69534 0.0126165 1.00091 3.60966 5.3312 0.20388
2 1 5.91204 0.71448 1.00041 -3.20578 1.76565 0.0832807
3 1 5.91219 2.1162 0.995195 -3.04112 -5.80923 -1.06656
4 1 4.68433 2.84821 0.995289 -0.766728 3.41192 -1.0172
5 1 4.69009 4.25386 0.999351 -0.0174788 -3.00688 -0.158654
6 1 5.91346 4.98436 1.00415 -2.57396 6.24951 0.917327
7 1 5.91631 6.38969 1.0019 -2.31743 -1.03349 0.426272
8 1 4.69758 7.09065 1.00236 3.87178 -4.73566 0.524346
9 1 2.22128 0.0131913 0.99995 -3.90557 5.42766 -0.00972069
10 1 3.45917 0.703086 1.00084 -0.119024 -3.10992 0.190357
11 1 3.46211 2.12775 1.0023 0.226162 -0.366465 0.483822
12 1 2.23151 2.84853 1.00092 0.469489 3.02573 0.195486
13 1 2.23394 4.24759 0.998223 0.749554 -3.86597 -0.38254
14 1 3.45914 4.97008 0.99624 0.0299892 0.0121279 -0.814742
15 1 3.45667 6.39793 1.00032 -0.593722 3.38606 0.0629244
16 1 2.21327 7.08382 0.999102 -5.14934 -5.91861 -0.198118
17 1 1.00879 0.71477 0.999663 3.43412 1.83587 -0.0757123
18 1 1.00632 2.11449 0.999308 2.90968 -6.13304 -0.148802
19 1 1.00825 4.98446 1.00081 3.36263 5.83813 0.174825
20 1 1.00844 6.38425 1.00275 3.02707 -2.30458 0.609524
ITEM: TIMESTEP
10
ITEM: NUMBER OF ATOMS
20
ITEM: BOX BOUNDS mm mm mm
0.0000000000000000e+00 6.9190242934956112e+00
-8.5200000000000000e-04 8.5199999999999996e+00
0.0000000000000000e+00 2.0000000000000000e+00
ITEM: ATOMS id type x y z vx vy vz
1 1 4.69725 0.0153982 1.00101 3.96969 5.77192 0.204554
2 1 5.91037 0.715389 1.00045 -3.45876 1.85717 0.0811687
3 1 5.91058 2.11319 0.994662 -3.41554 -6.17906 -1.06676
4 1 4.68398 2.84996 0.994783 -0.616308 3.54063 -1.00702
5 1 4.69008 4.25231 0.999271 -0.0220952 -3.1547 -0.163167
6 1 5.9121 4.98761 1.00461 -2.89972 6.71589 0.915369
7 1 5.91507 6.38913 1.00211 -2.5956 -1.18341 0.427553
8 1 4.6996 7.08815 1.00262 4.16201 -5.22088 0.524159
9 1 2.21925 0.0160183 0.999946 -4.19036 5.85582 -0.00924483
10 1 3.45911 0.701461 1.00093 -0.128176 -3.37158 0.191955
11 1 3.4622 2.12758 1.00254 0.122252 -0.313258 0.474264
12 1 2.23174 2.85005 1.00102 0.439297 3.01797 0.192336
13 1 2.23429 4.24565 0.998033 0.645648 -3.84541 -0.378347
14 1 3.45916 4.97008 0.995835 0.0659104 0.00239808 -0.807476
15 1 3.45638 6.3997 1.00035 -0.576252 3.65998 0.0596676
16 1 2.21066 7.08076 0.999003 -5.25993 -6.28636 -0.198005
17 1 1.01056 0.715715 0.999625 3.62893 1.92589 -0.0759788
18 1 1.00787 2.11133 0.999234 3.27957 -6.48062 -0.14708
19 1 1.01002 4.98747 1.0009 3.73584 6.16213 0.17254
20 1 1.00998 6.38305 1.00306 3.11359 -2.47451 0.609509
ITEM: TIMESTEP
11
ITEM: NUMBER OF ATOMS
20
ITEM: BOX BOUNDS mm mm mm
0.0000000000000000e+00 6.9190242934956112e+00
-8.5200000000000000e-04 8.5199999999999996e+00
0.0000000000000000e+00 2.0000000000000000e+00
ITEM: ATOMS id type x y z vx vy vz
1 1 4.69931 0.0183885 1.00111 4.26619 6.16294 0.205341
2 1 5.90859 0.716337 1.00049 -3.66133 1.92047 0.0790714
3 1 5.90878 2.11002 0.994128 -3.79629 -6.45834 -1.0673
4 1 4.68371 2.85175 0.994282 -0.448468 3.58371 -0.995852
5 1 4.69007 4.25071 0.999188 -0.0112717 -3.21844 -0.167884
6 1 5.91056 4.99107 1.00507 -3.2337 7.09445 0.913229
7 1 5.91371 6.3885 1.00233 -2.8284 -1.30602 0.428828
8 1 4.70174 7.08543 1.00289 4.38761 -5.66058 0.523967
9 1 2.21709 0.0190471 0.999941 -4.40777 6.23225 -0.0087067
10 1 3.45904 0.699714 1.00103 -0.135572 -3.59857 0.19372
11 1 3.46223 2.12743 1.00277 0.016563 -0.25082 0.463682
12 1 2.23195 2.85155 1.00112 0.393439 2.92319 0.188961
13 1 2.23458 4.24375 0.997845 0.526037 -3.73426 -0.373786
14 1 3.45921 4.97008 0.995433 0.103542 -0.0130263 -0.799443
15 1 3.45609 6.40159 1.00038 -0.554666 3.89802 0.0560098
16 1 2.20801 7.07753 0.998904 -5.29312 -6.59724 -0.198086
17 1 1.01242 0.716696 0.999587 3.76873 1.98574 -0.076265
18 1 1.0096 2.10801 0.999161 3.65603 -6.73431 -0.145185
19 1 1.01199 4.99062 1.00099 4.1138 6.38859 0.169891
20 1 1.01155 6.38177 1.00336 3.13865 -2.61776 0.609811
ITEM: TIMESTEP
12
ITEM: NUMBER OF ATOMS
20
ITEM: BOX BOUNDS mm mm mm
0.0000000000000000e+00 6.9190242934956112e+00
-8.5200000000000000e-04 8.5199999999999996e+00
0.0000000000000000e+00 2.0000000000000000e+00
ITEM: ATOMS id type x y z vx vy vz
1 1 4.70151 0.0215611 1.00122 4.492 6.49921 0.206254
2 1 5.90671 0.71731 1.00053 -3.80764 1.95466 0.0770518
3 1 5.90678 2.10674 0.993595 -4.18041 -6.64198 -1.06828
4 1 4.68353 2.85354 0.993787 -0.266433 3.53797 -0.983721
5 1 4.69007 4.24909 0.999103 0.0149086 -3.1945 -0.172742
6 1 5.90886 4.9947 1.00552 -3.57429 7.37792 0.910927
7 1 5.91225 6.38782 1.00254 -3.01066 -1.39875 0.430058
8 1 4.70399 7.08249 1.00315 4.54306 -6.04959 0.523775
9 1 2.21484 0.0222506 0.999937 -4.55187 6.55186 -0.00810296
10 1 3.45897 0.697862 1.00113 -0.140697 -3.78803 0.195652
11 1 3.46221 2.12732 1.003 -0.088705 -0.178729 0.452074
12 1 2.23213 2.85297 1.00121 0.332719 2.7422 0.185384
13 1 2.23481 4.24192 0.997659 0.393166 -3.533 -0.368875
14 1 3.45927 4.97007 0.995035 0.142161 -0.0350406 -0.79065
15 1 3.45582 6.40359 1.00041 -0.528273 4.09678 0.0519343
16 1 2.20537 7.07416 0.998805 -5.24611 -6.8471 -0.198412
17 1 1.01433 0.7177 0.999549 3.84831 2.01405 -0.0765698
18 1 1.01152 2.10459 0.999089 4.0362 -6.88897 -0.143125
19 1 1.01414 4.99386 1.00107 4.49335 6.512 0.166854
20 1 1.01312 6.38043 1.00367 3.0992 -2.73099 0.610513
ITEM: TIMESTEP
13
ITEM: NUMBER OF ATOMS
20
ITEM: BOX BOUNDS mm mm mm
0.0000000000000000e+00 6.9190242934956112e+00
-8.5200000000000000e-04 8.5199999999999996e+00
0.0000000000000000e+00 2.0000000000000000e+00
ITEM: ATOMS id type x y z vx vy vz
1 1 4.70381 0.0248877 1.00132 4.64061 6.77594 0.207309
2 1 5.90478 0.718292 1.00057 -3.89218 1.95939 0.0751743
3 1 5.90459 2.10338 0.99306 -4.56443 -6.72628 -1.06978
4 1 4.68345 2.85529 0.993298 -0.0739481 3.40259 -0.970637
5 1 4.69008 4.24751 0.999015 0.0557237 -3.08156 -0.177681
6 1 5.90699 4.99845 1.00598 -3.91919 7.56022 0.908487
7 1 5.9107 6.38711 1.00276 -3.13757 -1.45941 0.431199
8 1 4.70629 7.07938 1.00341 4.62347 -6.38292 0.523593
9 1 2.21254 0.025599 0.999933 -4.61749 6.80985 -0.00743024
10 1 3.4589 0.695926 1.00122 -0.143098 -3.9373 0.197753
11 1 3.46214 2.12725 1.00323 -0.191369 -0.0970066 0.439438
12 1 2.23228 2.85429 1.0013 0.258556 2.4784 0.181621
13 1 2.23498 4.24021 0.997476 0.250022 -3.24476 -0.363635
14 1 3.45935 4.97005 0.994642 0.180972 -0.0641775 -0.781107
15 1 3.45556 6.40569 1.00044 -0.496366 4.25311 0.0474244
16 1 2.20276 7.07068 0.998705 -5.11736 -7.03239 -0.199035
17 1 1.01626 0.71871 0.99951 3.86296 2.00993 -0.0768922
18 1 1.01364 2.10112 0.999018 4.41671 -6.94091 -0.140908
19 1 1.01648 4.99713 1.00115 4.87088 6.5283 0.163407
20 1 1.01465 6.37904 1.00397 2.9931 -2.81104 0.611702
ITEM: TIMESTEP
14
ITEM: NUMBER OF ATOMS
20
ITEM: BOX BOUNDS mm mm mm
0.0000000000000000e+00 6.9190242934956112e+00
-8.5200000000000000e-04 8.5199999999999996e+00
0.0000000000000000e+00 2.0000000000000000e+00
ITEM: ATOMS id type x y z vx vy vz
1 1 4.70615 0.0283371 1.00142 4.70641 6.98869 0.208524
2 1 5.90282 0.719269 1.0006 -3.90993 1.93486 0.0735025
3 1 5.90222 2.10001 0.992525 -4.94448 -6.70909 -1.0719
4 1 4.68346 2.85694 0.992816 0.12478 3.17933 -0.956616
5 1 4.69012 4.24601 0.998925 0.109813 -2.88084 -0.182652
6 1 5.90494 5.00226 1.00643 -4.26556 7.6367 0.905942
7 1 5.90911 6.38636 1.00297 -3.20481 -1.48625 0.432208
8 1 4.70861 7.07611 1.00367 4.62484 -6.65591 0.52343
9 1 2.21022 0.0290604 0.99993 -4.6005 7.00188 -0.00668519
10 1 3.45883 0.693925 1.00132 -0.142397 -4.04394 0.200022
11 1 3.46202 2.12723 1.00344 -0.289307 -0.00619242 0.425782
12 1 2.23239 2.85545 1.00139 0.172972 2.13792 0.177683
13 1 2.23506 4.23867 0.997295 0.100102 -2.87545 -0.358082
14 1 3.45945 4.97001 0.994254 0.219131 -0.100521 -0.770827
15 1 3.45532 6.40785 1.00046 -0.458254 4.36411 0.0424637
16 1 2.20025 7.06713 0.998605 -4.90678 -7.15032 -0.200007
17 1 1.01819 0.71971 0.999472 3.80858 1.97308 -0.077232
18 1 1.01594 2.09765 0.998948 4.79375 -6.88809 -0.138549
19 1 1.01901 5.00038 1.00123 5.2424 6.43508 0.159531
20 1 1.01611 6.37762 1.00428 2.81925 -2.85504 0.613459
ITEM: TIMESTEP
15
ITEM: NUMBER OF ATOMS
20
ITEM: BOX BOUNDS mm mm mm
0.0000000000000000e+00 6.9190242934956112e+00
-8.5200000000000000e-04 8.5199999999999996e+00
0.0000000000000000e+00 2.0000000000000000e+00
ITEM: ATOMS id type x y z vx vy vz
1 1 4.70851 0.0318764 1.00153 4.68491 7.13351 0.209917
2 1 5.90087 0.720227 1.00064 -3.85659 1.88188 0.072097
3 1 5.89965 2.09667 0.991988 -5.3163 -6.58999 -1.07472
4 1 4.68357 2.85847 0.992341 0.32515 2.87274 -0.941671
5 1 4.69019 4.24463 0.998833 0.175198 -2.59627 -0.187615
6 1 5.90272 5.00609 1.00689 -4.61002 7.60437 0.90333
7 1 5.9075 6.38562 1.00319 -3.20873 -1.47811 0.433044
8 1 4.71091 7.07272 1.00393 4.54419 -6.86437 0.523299
9 1 2.20794 0.0326009 0.999926 -4.49802 7.12422 -0.0058647
10 1 3.45876 0.691882 1.00142 -0.138296 -4.10576 0.20246
11 1 3.46185 2.12725 1.00365 -0.380495 0.0926338 0.411118
12 1 2.23246 2.85643 1.00148 0.0785633 1.72955 0.173574
13 1 2.23508 4.23734 0.997118 -0.0526287 -2.43377 -0.352231
14 1 3.45957 4.96995 0.993871 0.255774 -0.14366 -0.759829
15 1 3.45511 6.41005 1.00048 -0.413304 4.42719 0.0370371
16 1 2.19786 7.06353 0.998505 -4.6159 -7.19898 -0.201374
17 1 1.02007 0.720684 0.999433 3.68198 1.9038 -0.0775892
18 1 1.01843 2.09424 0.99888 5.16312 -6.73029 -0.13606
19 1 1.02172 5.00356 1.00131 5.60361 6.23183 0.155214
20 1 1.01747 6.37619 1.00458 2.57778 -2.86052 0.615864
ITEM: TIMESTEP
16
ITEM: NUMBER OF ATOMS
20
ITEM: BOX BOUNDS mm mm mm
0.0000000000000000e+00 6.9190242934956112e+00
-8.5200000000000000e-04 8.5199999999999996e+00
0.0000000000000000e+00 2.0000000000000000e+00
ITEM: ATOMS id type x y z vx vy vz
1 1 4.71084 0.0354706 1.00163 4.57308 7.20716 0.211509
2 1 5.89896 0.721151 1.00068 -3.72882 1.80187 0.071013
3 1 5.8969 2.09342 0.99145 -5.67534 -6.37041 -1.07833
4 1 4.68378 2.85982 0.991874 0.522235 2.49013 -0.925813
5 1 4.6903 4.24341 0.998737 0.249321 -2.23451 -0.192546
6 1 5.90033 5.00987 1.00734 -4.94876 7.46212 0.900695
7 1 5.9059 6.38489 1.0034 -3.14656 -1.43444 0.433665
8 1 4.71315 7.06925 1.0042 4.37985 -7.00469 0.52321
9 1 2.20573 0.0361847 0.999924 -4.30867 7.17394 -0.00496607
10 1 3.45869 0.689819 1.00153 -0.130584 -4.12085 0.205067
11 1 3.46164 2.12732 1.00385 -0.463052 0.197866 0.395467
12 1 2.23247 2.85718 1.00156 -0.0215297 1.26465 0.169294
13 1 2.23501 4.23624 0.996943 -0.203772 -1.93104 -0.346093
14 1 3.4597 4.96986 0.993494 0.290042 -0.19269 -0.748133
15 1 3.45491 6.41227 1.00049 -0.36098 4.44009 0.0311311
16 1 2.19563 7.05993 0.998404 -4.24803 -7.17749 -0.203179
17 1 1.02187 0.721614 0.999394 3.48104 1.80301 -0.0779644
18 1 1.0211 2.09092 0.998812 5.52034 -6.4693 -0.133459
19 1 1.02461 5.00662 1.00139 5.94997 5.92015 0.150449
20 1 1.01869 6.37476 1.00489 2.27022 -2.82557 0.618987
ITEM: TIMESTEP
17
ITEM: NUMBER OF ATOMS
20
ITEM: BOX BOUNDS mm mm mm
0.0000000000000000e+00 6.9190242934956112e+00
-8.5200000000000000e-04 8.5199999999999996e+00
0.0000000000000000e+00 2.0000000000000000e+00
ITEM: ATOMS id type x y z vx vy vz
1 1 4.71308 0.0390835 1.00174 4.36959 7.20722 0.213319
2 1 5.89714 0.722029 1.00071 -3.52455 1.69683 0.0702978
3 1 5.89397 2.0903 0.99091 -6.0168 -6.05378 -1.0828
4 1 4.68409 2.86096 0.991416 0.710836 2.04149 -0.909052
5 1 4.69044 4.2424 0.99864 0.329085 -1.80492 -0.197436
6 1 5.89778 5.01355 1.00779 -5.27754 7.21088 0.898087
7 1 5.90435 6.38418 1.00362 -3.01659 -1.35548 0.434034
8 1 4.71529 7.06572 1.00446 4.13161 -7.07399 0.523176
9 1 2.20363 0.0397748 0.999921 -4.03286 7.14909 -0.00398727
10 1 3.45863 0.687761 1.00163 -0.11914 -4.08754 0.207841
11 1 3.46139 2.12745 1.00405 -0.535268 0.307425 0.378859
12 1 2.23244 2.85769 1.00165 -0.123661 0.756803 0.164831
13 1 2.23487 4.23541 0.996772 -0.348542 -1.3809 -0.339675
14 1 3.45986 4.96975 0.993123 0.32111 -0.24624 -0.735766
15 1 3.45474 6.41449 1.00051 -0.300893 4.4009 0.0247349
16 1 2.19361 7.05636 0.998302 -3.80835 -7.08603 -0.205454
17 1 1.02355 0.722487 0.999355 3.20496 1.67233 -0.0783586
18 1 1.02395 2.08777 0.998746 5.86068 -6.10902 -0.130766
19 1 1.02767 5.00949 1.00146 6.27664 5.50393 0.145237
20 1 1.01974 6.37336 1.0052 1.89968 -2.74901 0.622882
ITEM: TIMESTEP
18
ITEM: NUMBER OF ATOMS
20
ITEM: BOX BOUNDS mm mm mm
0.0000000000000000e+00 6.9190242934956112e+00
-8.5200000000000000e-04 8.5199999999999996e+00
0.0000000000000000e+00 2.0000000000000000e+00
ITEM: ATOMS id type x y z vx vy vz
1 1 4.71521 0.0426778 1.00185 4.07512 7.13225 0.215368
2 1 5.89544 0.722848 1.00075 -3.24322 1.56933 0.0699881
3 1 5.89088 2.08737 0.990367 -6.33566 -5.64556 -1.0882
4 1 4.68449 2.86186 0.990965 0.885554 1.5393 -0.891395
5 1 4.69063 4.24161 0.99854 0.410909 -1.31932 -0.202295
6 1 5.89506 5.01708 1.00823 -5.59181 6.85383 0.89556
7 1 5.90288 6.38353 1.00384 -2.81845 -1.24225 0.43412
8 1 4.71728 7.06217 1.00472 3.80101 -7.07027 0.523212
9 1 2.20169 0.0433338 0.99992 -3.67302 7.04887 -0.00292723
10 1 3.45857 0.685732 1.00173 -0.103931 -4.00449 0.210781
11 1 3.46111 2.12763 1.00423 -0.595641 0.418845 0.361332
12 1 2.23235 2.85794 1.00173 -0.223726 0.221446 0.16017
13 1 2.23466 4.23486 0.996603 -0.481814 -0.798939 -0.332981
14 1 3.46003 4.96962 0.992759 0.348215 -0.302543 -0.722758
15 1 3.45461 6.41667 1.00052 -0.232849 4.30809 0.0178404
16 1 2.19182 7.05285 0.998199 -3.30405 -6.92588 -0.208222
17 1 1.02508 0.723286 0.999316 2.85454 1.51396 -0.078773
18 1 1.02697 2.08481 0.998681 6.17925 -5.65556 -0.128001
19 1 1.03089 5.01212 1.00153 6.57851 4.9895 0.13959
20 1 1.02059 6.37201 1.00552 1.47106 -2.63061 0.627587
ITEM: TIMESTEP
19
ITEM: NUMBER OF ATOMS
20
ITEM: BOX BOUNDS mm mm mm
0.0000000000000000e+00 6.9190242934956112e+00
-8.5200000000000000e-04 8.5199999999999996e+00
0.0000000000000000e+00 2.0000000000000000e+00
ITEM: ATOMS id type x y z vx vy vz
1 1 4.71716 0.0462158 1.00196 3.69264 6.98197 0.217677
2 1 5.8939 0.723598 1.00078 -2.88612 1.42243 0.0701074
3 1 5.88764 2.08466 0.989822 -6.62672 -5.15328 -1.09456
4 1 4.68498 2.8625 0.990524 1.04085 0.998162 -0.872846
5 1 4.69085 4.24108 0.998438 0.490783 -0.791711 -0.207153
6 1 5.89218 5.0204 1.00868 -5.88671 6.39647 0.893172
7 1 5.90153 6.38294 1.00406 -2.55329 -1.09668 0.433899
8 1 4.71909 7.05865 1.00498 3.39151 -6.99252 0.523329
9 1 2.19996 0.0468237 0.999919 -3.23383 6.87366 -0.00178618
10 1 3.45853 0.683757 1.00184 -0.0850127 -3.87067 0.213884
11 1 3.4608 2.12787 1.00441 -0.642902 0.529382 0.342932
12 1 2.23221 2.85791 1.00181 -0.31722 -0.324671 0.155288
13 1 2.23439 4.23461 0.996439 -0.598176 -0.202148 -0.326012
14 1 3.46021 4.96945 0.992401 0.370679 -0.359527 -0.709142
15 1 3.45451 6.4188 1.00053 -0.156887 4.16051 0.0104428
16 1 2.19031 7.04943 0.998094 -2.74423 -6.69941 -0.21149
17 1 1.02641 0.724 0.999276 2.4325 1.33082 -0.0792089
18 1 1.03013 2.08211 0.998618 6.47092 -5.11725 -0.125188
19 1 1.03425 5.01447 1.0016 6.85018 4.38574 0.133535
20 1 1.02121 6.37073 1.00583 0.991033 -2.47126 0.633115
ITEM: TIMESTEP
20
ITEM: NUMBER OF ATOMS
20
ITEM: BOX BOUNDS mm mm mm
0.0000000000000000e+00 6.9190242934956112e+00
-8.5200000000000000e-04 8.5199999999999996e+00
0.0000000000000000e+00 2.0000000000000000e+00
ITEM: ATOMS id type x y z vx vy vz
1 1 4.7189 0.0496598 1.00207 3.22763 6.75737 0.220266
2 1 5.89255 0.72427 1.00082 -2.45664 1.25956 0.0706634
3 1 5.88426 2.08221 0.989273 -6.8846 -4.58647 -1.10191
4 1 4.68554 2.86286 0.990093 1.17113 0.434313 -0.853405
5 1 4.69112 4.24082 0.998333 0.564337 -0.237758 -0.212059
6 1 5.88917 5.02347 1.00913 -6.15711 5.84668 0.890983
7 1 5.90033 6.38243 1.00427 -2.224 -0.92162 0.433358
8 1 4.72068 7.05518 1.00524 2.90863 -6.84083 0.523542
9 1 2.19846 0.0502074 0.999918 -2.72242 6.62513 -0.000565951
10 1 3.45849 0.681861 1.00195 -0.0625297 -3.68536 0.217147
11 1 3.46046 2.12816 1.00458 -0.676039 0.636136 0.323713
12 1 2.23203 2.85761 1.00188 -0.399299 -0.864077 0.150159
13 1 2.23406 4.23466 0.996277 -0.691998 0.391663 -0.31877
14 1 3.4604 4.96926 0.99205 0.387932 -0.414917 -0.694954
15 1 3.45445 6.42084 1.00053 -0.0733287 3.95744 0.00254112
16 1 2.18908 7.04615 0.997987 -2.13982 -6.41005 -0.215252
17 1 1.02751 0.724617 0.999237 1.94373 1.12644 -0.0796673
18 1 1.03344 2.0797 0.998556 6.73034 -4.50458 -0.122351
19 1 1.03774 5.01651 1.00167 7.08597 3.70404 0.127109
20 1 1.02158 6.36954 1.00615 0.468084 -2.27311 0.63945
ITEM: TIMESTEP
21
ITEM: NUMBER OF ATOMS
20
ITEM: BOX BOUNDS mm mm mm
0.0000000000000000e+00 6.9190242934956112e+00
-8.5200000000000000e-04 8.5199999999999996e+00
0.0000000000000000e+00 2.0000000000000000e+00
ITEM: ATOMS id type x y z vx vy vz
1 1 4.72039 0.0529731 1.00218 2.68818 6.46074 0.223153
2 1 5.89144 0.724857 1.00085 -1.96045 1.08444 0.0716463
3 1 5.88075 2.08007 0.98872 -7.10376 -3.95653 -1.11025
4 1 4.68615 2.86293 0.989671 1.27078 -0.134892 -0.833069
5 1 4.69142 4.24084 0.998226 0.62691 0.325711 -0.21708
6 1 5.88603 5.02625 1.00957 -6.39765 5.2147 0.889052
7 1 5.89931 6.38202 1.00449 -1.83538 -0.720793 0.432492
8 1 4.722 7.05181 1.0055 2.36008 -6.61642 0.523861
9 1 2.19723 0.0534488 0.999918 -2.14833 6.30623 0.000729694
10 1 3.45846 0.680071 1.00206 -0.0367171 -3.44817 0.220565
11 1 3.46012 2.1285 1.00473 -0.694317 0.736181 0.303735
12 1 2.23181 2.85705 1.00196 -0.464861 -1.37922 0.144753
13 1 2.2337 4.235 0.99612 -0.757515 0.964503 -0.311254
14 1 3.46059 4.96904 0.991706 0.399533 -0.466351 -0.680234
15 1 3.45444 6.42276 1.00053 0.0171897 3.69861 -0.0058623
16 1 2.18817 7.04302 0.997879 -1.50334 -6.06217 -0.21948
17 1 1.02835 0.725127 0.999197 1.39542 0.904933 -0.0801489
18 1 1.03686 2.07761 0.998496 6.95196 -3.83006 -0.119516
19 1 1.04134 5.01818 1.00173 7.27989 2.95819 0.120367
20 1 1.02168 6.36846 1.00647 -0.087613 -2.03964 0.646544
ITEM: TIMESTEP
22
ITEM: NUMBER OF ATOMS
20
ITEM: BOX BOUNDS mm mm mm
0.0000000000000000e+00 6.9190242934956112e+00